<?xml version="1.0"?>
<VTKFile type="UnstructuredGrid" version="0.1" byte_order="LittleEndian">
<UnstructuredGrid>
<Piece NumberOfPoints="4152" NumberOfCells="1057">
<Points>
<DataArray type="Float64" NumberOfComponents="3" format="ascii">
-0.5 -0.5 -0.5 -0.5 -0.5 -0.29999999999999999 -0.5 -0.35358983848622461 -0.35358983848622461 -0.35358983848622461 -0.5 -0.35358983848622461 -0.5 -0.5 -0.5 -0.5 -0.35358983848622461 -0.35358983848622461 -0.35358983848622461 -0.35358983848622461 -0.5 -0.35358983848622461 -0.5 -0.35358983848622461 -0.5 -0.5 -0.5 -0.5 -0.35358983848622461 -0.35358983848622461 -0.5 -0.29999999999999999 -0.5 -0.35358983848622461 -0.35358983848622461 -0.5 -0.5 -0.5 -0.5 -0.35358983848622461 -0.35358983848622461 -0.5 -0.35358983848622461 -0.5 -0.35358983848622461 -0.29999999999999999 -0.5 -0.5 -0.5 -0.35358983848622461 -0.35358983848622461 -0.35358983848622461 -0.35358983848622461 -0.5 -0.31596613500246967 -0.31596613500246978 -0.28047958697778269 -0.35358983848622461 -0.5 -0.35358983848622461 -0.5 -0.5 -0.29999999999999999 -0.5 -0.35358983848622461 -0.35358983848622461 -0.31596613500246967 -0.31596613500246978 -0.28047958697778269 -0.35358983848622461 -0.5 -0.35358983848622461 -0.5 -0.5 -0.29999999999999999 -0.5 -0.35358983848622461 -0.35358983848622461 -0.31596613500246967 -0.31596613500246978 -0.28047958697778269 -0.5 -0.33037698825050549 -0.1995291129326934 -0.5 -0.35358983848622461 -0.35358983848622461 -0.31596613500246967 -0.31596613500246978 -0.28047958697778269 -0.5 -0.33037698825050549 -0.1995291129326934 -0.5 -0.1856863617897429 -0.31766213745653071 -0.5 -0.35358983848622461 -0.35358983848622461 -0.31596613500246967 -0.31596613500246978 -0.28047958697778269 -0.33037689348530941 -0.199529177109489 -0.5 -0.5 -0.1856863617897429 -0.31766213745653071 -0.5 -0.35358983848622461 -0.35358983848622461 -0.5 -0.29999999999999999 -0.5 -0.33037689348530941 -0.199529177109489 -0.5 -0.5 -0.1856863617897429 -0.31766213745653071 -0.5 -0.35358983848622461 -0.35358983848622461 -0.5 -0.29999999999999999 -0.5 -0.35358983848622461 -0.35358983848622461 -0.5 -0.33037689348530941 -0.199529177109489 -0.5 -0.35358983848622461 -0.35358983848622461 -0.5 -0.31596613500246967 -0.31596613500246978 -0.28047958697778269 -0.1856861292320835 -0.31766229494900661 -0.5 -0.33037689348530941 -0.199529177109489 -0.5 -0.35358983848622461 -0.35358983848622461 -0.5 -0.31596613500246967 -0.31596613500246978 -0.28047958697778269 -0.1856861292320835 -0.31766229494900661 -0.5 -0.1856863617897429 -0.5 -0.31766213745653071 -0.5 -0.35358983848622461 -0.35358983848622461 -0.35358983848622461 -0.35358983848622461 -0.5 -0.31596613500246967 -0.31596613500246978 -0.28047958697778269 -0.33037689348530941 -0.199529177109489 -0.5 -0.5 -0.5 -0.29999999999999999 -0.31596613500246967 -0.31596613500246978 -0.28047958697778269 -0.35358983848622461 -0.5 -0.35358983848622461 -0.33037698825050549 -0.5 -0.1995291129326934 -0.35358983848622461 -0.35358983848622461 -0.5 -0.31596613500246967 -0.31596613500246978 -0.28047958697778269 -0.35358983848622461 -0.5 -0.35358983848622461 -0.1856863617897429 -0.5 -0.31766213745653071 -0.31596613500246967 -0.31596613500246978 -0.28047958697778269 -0.35358983848622461 -0.5 -0.35358983848622461 -0.1856863617897429 -0.5 -0.31766213745653071 -0.33037698825050549 -0.5 -0.1995291129326934 -0.35358983848622461 -0.35358983848622461 -0.5 -0.35358983848622461 -0.5 -0.35358983848622461 -0.29999999999999999 -0.5 -0.5 -0.1856863617897429 -0.5 -0.31766213745653071 -0.35358983848622461 -0.35358983848622461 -0.5 -0.29999999999999999 -0.5 -0.5 -0.1856861292320835 -0.31766229494900661 -0.5 -0.1856863617897429 -0.5 -0.31766213745653071 -0.1856861292320835 -0.31766229494900661 -0.5 -2.7257675990577429e-15 -0.23570226039551581 -0.23570226039551581 -0.041798135582931988 -0.18969697123388379 -0.5 0.01133491425873312 -0.33629338795174291 -0.5 -0.1856861292320835 -0.31766229494900661 -0.5 -0.1856863617897429 -0.5 -0.31766213745653071 -2.7257675990577429e-15 -0.23570226039551581 -0.23570226039551581 0.01133491425873312 -0.5 -0.33629338795174291 -0.1856863617897429 -0.5 -0.31766213745653071 -0.041798135582931988 -0.5 -0.18969697123388379 -2.7257675990577429e-15 -0.23570226039551581 -0.23570226039551581 0.01133491425873312 -0.5 -0.33629338795174291 -0.29999999999999999 -0.5 -0.5 -0.1856861292320835 -0.31766229494900661 -0.5 -0.099999999999999978 -0.5 -0.5 -0.1856863617897429 -0.5 -0.31766213745653071 -0.1856861292320835 -0.31766229494900661 -0.5 -0.1856863617897429 -0.5 -0.31766213745653071 -2.7257675990577429e-15 -0.23570226039551581 -0.23570226039551581 -0.1666666666666696 -0.20412414523193029 -0.20412414523193029 -0.31596613500246967 -0.31596613500246978 -0.28047958697778269 -0.1856861292320835 -0.31766229494900661 -0.5 -0.1856863617897429 -0.5 -0.31766213745653071 -0.1666666666666696 -0.20412414523193029 -0.20412414523193029 -0.1856861292320835 -0.31766229494900661 -0.5 -2.7257675990577429e-15 -0.23570226039551581 -0.23570226039551581 0.01133491425873312 -0.5 -0.33629338795174291 0.01133491425873312 -0.33629338795174291 -0.5 -0.1856861292320835 -0.31766229494900661 -0.5 -0.099999999999999978 -0.5 -0.5 0.01133491425873312 -0.5 -0.33629338795174291 0.01133491425873312 -0.33629338795174291 -0.5 -0.1856861292320835 -0.31766229494900661 -0.5 -0.099999999999999978 -0.5 -0.5 -0.1856863617897429 -0.5 -0.31766213745653071 0.01133491425873312 -0.5 -0.33629338795174291 -0.22123592096609901 -0.3021973649812888 -0.0106774749330651 -0.17275763665747901 -0.5 -0.10309905102148011 -0.1666666666666696 -0.20412414523193029 -0.20412414523193029 0.00067135502960021269 -0.28339836897428089 0.009853789173576849 -0.041798135582931988 -0.5 -0.18969697123388379 -0.17275763665747901 -0.5 -0.10309905102148011 -0.1666666666666696 -0.20412414523193029 -0.20412414523193029 0.00067135502960021269 -0.28339836897428089 0.009853789173576849 -0.31596613500246967 -0.31596613500246978 -0.28047958697778269 -0.22123592096609901 -0.3021973649812888 -0.0106774749330651 -0.17275763665747901 -0.5 -0.10309905102148011 -0.1666666666666696 -0.20412414523193029 -0.20412414523193029 -0.041798135582931988 -0.5 -0.18969697123388379 -2.7257675990577429e-15 -0.23570226039551581 -0.23570226039551581 -0.1666666666666696 -0.20412414523193029 -0.20412414523193029 0.00067135502960021269 -0.28339836897428089 0.009853789173576849 -0.31596613500246967 -0.31596613500246978 -0.28047958697778269 -0.1856863617897429 -0.5 -0.31766213745653071 -0.17275763665747901 -0.5 -0.10309905102148011 -0.1666666666666696 -0.20412414523193029 -0.20412414523193029 -0.1856863617897429 -0.5 -0.31766213745653071 -0.041798135582931988 -0.5 -0.18969697123388379 -2.7257675990577429e-15 -0.23570226039551581 -0.23570226039551581 -0.1666666666666696 -0.20412414523193029 -0.20412414523193029 -0.1856863617897429 -0.5 -0.31766213745653071 -0.041798135582931988 -0.5 -0.18969697123388379 -0.17275763665747901 -0.5 -0.10309905102148011 -0.1666666666666696 -0.20412414523193029 -0.20412414523193029 -0.22123592096609901 -0.3021973649812888 -0.0106774749330651 -0.17275763665747901 -0.5 -0.10309905102148011 0.019615242270663021 -0.5 1.110223024625157e-16 0.00067135502960021269 -0.28339836897428089 0.009853789173576849 -0.041798135582931988 -0.5 -0.18969697123388379 -0.17275763665747901 -0.5 -0.10309905102148011 0.019615242270663021 -0.5 1.110223024625157e-16 0.00067135502960021269 -0.28339836897428089 0.009853789173576849 -0.22123592096609901 -0.3021973649812888 -0.0106774749330651 -0.17275763665747901 -0.5 -0.10309905102148011 -0.32679491924311233 -0.5 0 -0.1705807092817119 -0.5 0.1035600170507085 -0.22123592096609901 -0.3021973649812888 -0.0106774749330651 -0.17275763665747901 -0.5 -0.10309905102148011 0.019615242270663021 -0.5 1.110223024625157e-16 -0.1705807092817119 -0.5 0.1035600170507085 -0.22123592096609901 -0.3021973649812888 -0.0106774749330651 -0.17275763665747901 -0.5 -0.10309905102148011 -0.33037698825050549 -0.5 -0.1995291129326934 -0.32679491924311233 -0.5 0 -0.31596613500246967 -0.31596613500246978 -0.28047958697778269 -0.22123592096609901 -0.3021973649812888 -0.0106774749330651 -0.33037698825050549 -0.5 -0.1995291129326934 -0.5 -0.33037698825050549 -0.1995291129326934 -0.22123592096609901 -0.3021973649812888 -0.0106774749330651 -0.5 -0.33037698825050549 -0.1995291129326934 -0.5 -0.17275763665747901 -0.10309905102148011 -0.5 -0.32679491924311233 0 -0.31596613500246967 -0.31596613500246978 -0.28047958697778269 -0.22123592096609901 -0.3021973649812888 -0.0106774749330651 -0.17275763665747901 -0.5 -0.10309905102148011 -0.33037698825050549 -0.5 -0.1995291129326934 -0.22123592096609901 -0.3021973649812888 -0.0106774749330651 -0.33037698825050549 -0.5 -0.1995291129326934 -0.5 -0.33037698825050549 -0.1995291129326934 -0.5 -0.32679491924311233 0 -0.31596613500246967 -0.31596613500246978 -0.28047958697778269 -0.22123592096609901 -0.3021973649812888 -0.0106774749330651 -0.5 -0.33037698825050549 -0.1995291129326934 -0.5 -0.17275763665747901 -0.10309905102148011 -0.22123592096609901 -0.3021973649812888 -0.0106774749330651 -0.33037698825050549 -0.5 -0.1995291129326934 -0.5 -0.32679491924311233 0 -0.32679491924311233 -0.5 0 -0.5 -0.5 -0.099999999999999978 -0.33037698825050549 -0.5 -0.1995291129326934 -0.5 -0.33037698825050549 -0.1995291129326934 -0.5 -0.32679491924311233 0 -0.5 -0.5 -0.099999999999999978 -0.33037698825050549 -0.5 -0.1995291129326934 -0.5 -0.32679491924311233 0 -0.32679491924311233 -0.5 0 -0.5 -0.5 -0.29999999999999999 -0.5 -0.5 -0.099999999999999978 -0.33037698825050549 -0.5 -0.1995291129326934 -0.5 -0.33037698825050549 -0.1995291129326934 -0.5 -0.5 -0.29999999999999999 -0.31596613500246967 -0.31596613500246978 -0.28047958697778269 -0.33037698825050549 -0.5 -0.1995291129326934 -0.5 -0.33037698825050549 -0.1995291129326934 -0.31596613500246967 -0.31596613500246978 -0.28047958697778269 -0.1856863617897429 -0.5 -0.31766213745653071 -0.17275763665747901 -0.5 -0.10309905102148011 -0.33037698825050549 -0.5 -0.1995291129326934 -0.
[...]
<PointData Scalars="" Vectors="displacement," Tensors="">
<DataArray type="Float64" Name="displacement" NumberOfComponents="3" format="ascii">
1.2299087800721892e-16 -8.4569463519763854e-17 -1.2031933609157885e-16 -1.7910255129546327e-05 -1.7805727083221883e-05 -4.2178657614260981e-05 -1.4091930491852671e-05 -7.9882705114048586e-06 -2.8923425018406151e-05 -8.2966453456767827e-06 -1.4438311027062463e-05 -2.8808045128275898e-05 1.2299087800721892e-16 -8.4569463519763854e-17 -1.2031933609157885e-16 -1.4091930491852671e-05 -7.9882705114048586e-06 -2.8923425018406151e-05 4.3119059212927413e-17 -1.8185966784139279e-16 -2.3973742912727913e-16 -8.2966453456767827e-06 -1.4438311027062463e-05 -2.8808045128275898e-05 1.2299087800721892e-16 -8.4569463519763854e-17 -1.2031933609157885e-16 -1.4091930491852671e-05 -7.9882705114048586e-06 -2.8923425018406151e-05 8.9694012850652372e-17 -7.2094362272602519e-17 -2.9314116238576826e-17 4.3119059212927413e-17 -1.8185966784139279e-16 -2.3973742912727913e-16 1.2299087800721892e-16 -8.4569463519763854e-17 -1.2031933609157885e-16 4.3119059212927413e-17 -1.8185966784139279e-16 -2.3973742912727913e-16 -8.2966453456767827e-06 -1.4438311027062463e-05 -2.8808045128275898e-05 -9.8161801224353612e-17 -2.6592429972459308e-16 -8.2168972147245167e-17 -1.4091930491852671e-05 -7.9882705114048586e-06 -2.8923425018406151e-05 4.3119059212927413e-17 -1.8185966784139279e-16 -2.3973742912727913e-16 -1.057577206971854e-05 -9.6141936965565508e-06 -4.093334152660912e-05 -8.2966453456767827e-06 -1.4438311027062463e-05 -2.8808045128275898e-05 -1.7910255129546327e-05 -1.7805727083221883e-05 -4.2178657614260981e-05 -1.4091930491852671e-05 -7.9882705114048586e-06 -2.8923425018406151e-05 -1.057577206971854e-05 -9.6141936965565508e-06 -4.093334152660912e-05 -8.2966453456767827e-06 -1.4438311027062463e-05 -2.8808045128275898e-05 -1.7910255129546327e-05 -1.7805727083221883e-05 -4.2178657614260981e-05 -1.4091930491852671e-05 -7.9882705114048586e-06 -2.8923425018406151e-05 -1.057577206971854e-05 -9.6141936965565508e-06 -4.093334152660912e-05 -2.230525153158765e-05 -1.1696782053631474e-05 -6.0174026294776791e-05 -1.4091930491852671e-05 -7.9882705114048586e-06 -2.8923425018406151e-05 -1.057577206971854e-05 -9.6141936965565508e-06 -4.093334152660912e-05 -2.230525153158765e-05 -1.1696782053631474e-05 -6.0174026294776791e-05 -1.7901534380437189e-05 -4.3402975751544022e-06 -3.7867966821625887e-05 -1.4091930491852671e-05 -7.9882705114048586e-06 -2.8923425018406151e-05 -1.057577206971854e-05 -9.6141936965565508e-06 -4.093334152660912e-05 2.1609843363530612e-16 -2.8821143063274823e-17 -9.0666406674100308e-17 -1.7901534380437189e-05 -4.3402975751544022e-06 -3.7867966821625887e-05 -1.4091930491852671e-05 -7.9882705114048586e-06 -2.8923425018406151e-05 8.9694012850652372e-17 -7.2094362272602519e-17 -2.9314116238576826e-17 2.1609843363530612e-16 -2.8821143063274823e-17 -9.0666406674100308e-17 -1.7901534380437189e-05 -4.3402975751544022e-06 -3.7867966821625887e-05 -1.4091930491852671e-05 -7.9882705114048586e-06 -2.8923425018406151e-05 8.9694012850652372e-17 -7.2094362272602519e-17 -2.9314116238576826e-17 4.3119059212927413e-17 -1.8185966784139279e-16 -2.3973742912727913e-16 2.1609843363530612e-16 -2.8821143063274823e-17 -9.0666406674100308e-17 4.3119059212927413e-17 -1.8185966784139279e-16 -2.3973742912727913e-16 -1.057577206971854e-05 -9.6141936965565508e-06 -4.093334152660912e-05 -3.4867687757249646e-16 -1.8050949732346944e-16 2.730969747219425e-16 2.1609843363530612e-16 -2.8821143063274823e-17 -9.0666406674100308e-17 4.3119059212927413e-17 -1.8185966784139279e-16 -2.3973742912727913e-16 -1.057577206971854e-05 -9.6141936965565508e-06 -4.093334152660912e-05 -3.4867687757249646e-16 -1.8050949732346944e-16 2.730969747219425e-16 -5.6707463757000752e-06 -1.6007293970283027e-05 -3.4057623713578611e-05 -1.4091930491852671e-05 -7.9882705114048586e-06 -2.8923425018406151e-05 4.3119059212927413e-17 -1.8185966784139279e-16 -2.3973742912727913e-16 -1.057577206971854e-05 -9.6141936965565508e-06 -4.093334152660912e-05 2.1609843363530612e-16 -2.8821143063274823e-17 -9.0666406674100308e-17 -1.7910255129546327e-05 -1.7805727083221883e-05 -4.2178657614260981e-05 -1.057577206971854e-05 -9.6141936965565508e-06 -4.093334152660912e-05 -8.2966453456767827e-06 -1.4438311027062463e-05 -2.8808045128275898e-05 -1.3849416612912783e-05 -1.9167991837569142e-05 -5.6519234457794805e-05 4.3119059212927413e-17 -1.8185966784139279e-16 -2.3973742912727913e-16 -1.057577206971854e-05 -9.6141936965565508e-06 -4.093334152660912e-05 -8.2966453456767827e-06 -1.4438311027062463e-05 -2.8808045128275898e-05 -5.6707463757000752e-06 -1.6007293970283027e-05 -3.4057623713578611e-05 -1.057577206971854e-05 -9.6141936965565508e-06 -4.093334152660912e-05 -8.2966453456767827e-06 -1.4438311027062463e-05 -2.8808045128275898e-05 -5.6707463757000752e-06 -1.6007293970283027e-05 -3.4057623713578611e-05 -1.3849416612912783e-05 -1.9167991837569142e-05 -5.6519234457794805e-05 4.3119059212927413e-17 -1.8185966784139279e-16 -2.3973742912727913e-16 -8.2966453456767827e-06 -1.4438311027062463e-05 -2.8808045128275898e-05 -9.8161801224353612e-17 -2.6592429972459308e-16 -8.2168972147245167e-17 -5.6707463757000752e-06 -1.6007293970283027e-05 -3.4057623713578611e-05 4.3119059212927413e-17 -1.8185966784139279e-16 -2.3973742912727913e-16 -9.8161801224353612e-17 -2.6592429972459308e-16 -8.2168972147245167e-17 -3.4867687757249646e-16 -1.8050949732346944e-16 2.730969747219425e-16 -5.6707463757000752e-06 -1.6007293970283027e-05 -3.4057623713578611e-05 -3.4867687757249646e-16 -1.8050949732346944e-16 2.730969747219425e-16 -1.5850958019170629e-07 -7.9989365174667465e-06 -4.8615824958993961e-05 -2.9735261019951664e-16 -1.1170331695210811e-16 -1.2346352239178682e-17 -2.6777760781318549e-16 -1.6296575091993837e-16 1.7988269294250125e-16 -3.4867687757249646e-16 -1.8050949732346944e-16 2.730969747219425e-16 -5.6707463757000752e-06 -1.6007293970283027e-05 -3.4057623713578611e-05 -1.5850958019170629e-07 -7.9989365174667465e-06 -4.8615824958993961e-05 -1.300099424201549e-07 -1.5296582764014909e-05 -3.0167735949721047e-05 -5.6707463757000752e-06 -1.6007293970283027e-05 -3.4057623713578611e-05 -2.6341295398523273e-06 -2.0946320013157147e-05 -5.8304928684268066e-05 -1.5850958019170629e-07 -7.9989365174667465e-06 -4.8615824958993961e-05 -1.300099424201549e-07 -1.5296582764014909e-05 -3.0167735949721047e-05 -9.8161801224353612e-17 -2.6592429972459308e-16 -8.2168972147245167e-17 -3.4867687757249646e-16 -1.8050949732346944e-16 2.730969747219425e-16 -1.2368459799102019e-16 -1.8634724839594607e-16 2.4241405324060272e-16 -5.6707463757000752e-06 -1.6007293970283027e-05 -3.4057623713578611e-05 -3.4867687757249646e-16 -1.8050949732346944e-16 2.730969747219425e-16 -5.6707463757000752e-06 -1.6007293970283027e-05 -3.4057623713578611e-05 -1.5850958019170629e-07 -7.9989365174667465e-06 -4.8615824958993961e-05 -6.4496987856684238e-06 -7.0418930974268598e-06 -5.6099023562714015e-05 -1.057577206971854e-05 -9.6141936965565508e-06 -4.093334152660912e-05 -3.4867687757249646e-16 -1.8050949732346944e-16 2.730969747219425e-16 -5.6707463757000752e-06 -1.6007293970283027e-05 -3.4057623713578611e-05 -6.4496987856684238e-06 -7.0418930974268598e-06 -5.6099023562714015e-05 -3.4867687757249646e-16 -1.8050949732346944e-16 2.730969747219425e-16 -1.5850958019170629e-07 -7.9989365174667465e-06 -4.8615824958993961e-05 -1.300099424201549e-07 -1.5296582764014909e-05 -3.0167735949721047e-05 -2.6777760781318549e-16 -1.6296575091993837e-16 1.7988269294250125e-16 -3.4867687757249646e-16 -1.8050949732346944e-16 2.730969747219425e-16 -1.2368459799102019e-16 -1.8634724839594607e-16 2.4241405324060272e-16 -1.300099424201549e-07 -1.5296582764014909e-05 -3.0167735949721047e-05 -2.6777760781318549e-16 -1.6296575091993837e-16 1.7988269294250125e-16 -3.4867687757249646e-16 -1.8050949732346944e-16 2.730969747219425e-16 -1.2368459799102019e-16 -1.8634724839594607e-16 2.4241405324060272e-16 -5.6707463757000752e-06 -1.6007293970283027e-05 -3.4057623713578611e-05 -1.300099424201549e-07 -1.5296582764014909e-05 -3.0167735949721047e-05 -1.1634378395136714e-05 -7.6511397337382133e-06 -9.6396277799975301e-05 -8.835706524859167e-06 -1.9743027005650256e-05 -7.3653878190507803e-05 -6.4496987856684238e-06 -7.0418930974268598e-06 -5.6099023562714015e-05 -6.4811900370489213e-08 -6.3292155065563495e-06 -0.00010574975739643757 -2.6341295398523273e-06 -2.0946320013157147e-05 -5.8304928684268066e-05 -8.835706524859167e-06 -1.9743027005650256e-05 -7.3653878190507803e-05 -6.4496987856684238e-06 -7.0418930974268598e-06 -5.6099023562714015e-05 -6.4811900370489213e-08 -6.3292155065563495e-06 -0.00010574975739643757 -1.057577206971854e-05 -9.6141936965565508e-06 -4.093334152660912e-05 -1.1634378395136714e-05 -7.6511397337382133e-06 -9.6396277799975301e-05 -8.835706524859167e-06 -1.9743027005650256e-05 -7.3653878190507803e-05 -6.4496987856684238e-06 -7.0418930974268598e-06 -5.6099023562714015e-05 -2.6341295398523273e-06 -2.0946320013157147e-05 -5.8304928684268066e-05 -1.5850958019170629e-07 -7.9989365174667465e-06 -4.8615824958993961e-05 -6.4496987856684238e-06 -7.0418930974268598e-06 -5.6099023562714015e-05 -6.4811900370489213e-08 -6.3292155065563495e-06 -0.00010574975739643757 -1.057577206971854e-05 -9.6141936965565508e-06 -4.093334152660912e-05 -5.6707463757000752e-06 -1.6007293970283027e-05 -3.4057623713578611e-05 -8.835706524859167e-06 -1.9743027005650256e-05 -7.3653878190507803e-05 -6.4496987856684238e-06 -7.0418930974268598e-06 -5.6099023562714015e-05 -5.6707463757000752e-06 -1.6007293970283027e-05 -3.4057623713578611e-05 -2.6341295398523273e-06 -2.0946320013157147e-05 -5.8304928684268066e-05 -1.5850958019170629e-07 -7.9989365174667465e-06 -4.8615824958993961e-05 -6.4496987856684238e-06 -7.0418930974268598e-06 -5.6099023562714015e-05 -5.6707463757000752e-06 -1.6007293970283027e-05 -3.4057623713578611e-05 -2.6341295398523273e-06 -2.0946320013157147e-05 -5.8304928684268066e-05 -8.835706524859167e-06 -1.9743027005650256e-05 -7.3653878190507803e-05 -6.4496987856684238e-06 -7.0418930974268598e-06 -5.6099023562714015e-05 -1.1634378395136714e-05 -7.6511397337382133e-06 -9.6396277799975301e-05 -8.835706524859167e-06 -1.9743027005650256e-05 -7.3653878190507803e-05 8.8588325281595497e-07 -1.6265749511898259e-05 -9.5880547069576892e-05 -6.4811900370489213e-08 -6.3292155065563495e-06 -0.00010574975739643757 -2.6341295398523273e-06 -2.0946320013157147e-05 -5.8304928684268066e-05 -8.835706524859167e-06 -1.9743027005650256e-05 -7.3653878190507803e-05 8.8588325281595497e-07 -1.6265749511898259e-05 -9.5880547069576892e-05 -6.4811900370489213e-08 -6.3292155065563495e-06 -0.00010574975739643757 -1.1634378395136714e-05 -7.6511397337382133e-06 -9.6396277799975301e-05 -8.835706524859167e-06 -1.9743027005650256e-05 -7.3653878190507803e-05 -1.6169505270576711e-05 -1.5536727742882644e-05 -9.3385829121785146e-05 -8.3346183119610426e-06 -1.2174126709108218e-05 -0.00011264264470196858 -1.1634378395136714e-05 -7.6511397337382133e-06 -9.6396277799975301e-05 -8.835706524859167e-06 -1.9743027005650256e-05 -7.3653878190507803e-05 8.8588325281595497e-07 -1.6265749511898259e-05 -9.5880547069576892e-05 -8.3346183119610426e-06 -1.2174126709108218e-05 -0.00011264264470196858 -1.1634378395136714e-05 -7.6511397337382133e-06 -9.6396277799975301e-05 -8.835706524859167e-06 -1.9743027005650256e-05 -7.3653878190507803e-05 -1.3849416612912783e-05 -1.9167991837569142e-05 -5.6519234457794805e-05 -1.6169505270576711e-05 -1.5536727742882644e-05 -9.3385829121785146e-05 -1.057577206971854e-05 -9.6141936965565508e-06 -4.093334152660912e-05 -1.1634378395136714e-05 -7.6511397337382133e-06 -9.6396277799975301e-05 -1.3849416612912783e-05 -1.9167991837569142e-05 -5.6519234457794805e-05 -2.230525153158765e-05 -1.1696782053631474e-05 -6.0174026294776791e-05 -1.1634378395136714e-05 -7.6511397337382133e-06 -9.6396277799975301e-05 -2.230525153158765e-05 -1.1696782053631474e-05 -6.0174026294776791e-05 -2.6654098848722779e-05 -4.54277461996879e-06 -8.1208248313381913e-05 -2.5276755918227874e-05 -8.7637632389261082e-06 -9.8629660850886919e-05 -1.057577206971854e-05 -9.6141936965565508e-06 -4.093334152660912e-05 -1.1634378395136714e-05 -7.6511397337382133e-06 -9.6396277799975301e-05 -8.835706524859167e-06 -1.9743027005650256e-05 -7.3653878190507803e-05 -1.3849416612912783e-05 -1.9167991837569142e-05 -5.6519234457794805e-05 -1.1634378395136714e-05 -7.6511397337382133e-06 -9.6396277799975301e-05 -1.3849416612912783e-05 -1.9167991837569142e-05 -5.6519234457794805e-05 -2.230525153158765e-05 -1.1696782053631474e-05 -6.0174026294776791e-05 -2.5276755918227874e-05 -8.7637632389261082e-06 -9.8629660850886919e-05 -1.057577206971854e-05 -9.6141936965565508e-06 -4.093334152660912e-05 -1.1634378395136714e-05 -7.6511397337382133e-06 -9.6396277799975301e-05 -2.230525153158765e-05 -1.1696782053631474e-05 -6.0174026294776791e-05 -2.6654098848722779e-05 -4.54277461996879e-06 -8.1208248313381913e-05 -1.1634378395136714e-05 -7.6511397337382133e-06 -9.6396277799975301e-05 -1.3849416612912783e-05 -1.9167991837569142e-05 -5.6519234457794805e-05 -2.5276755918227874e-05 -8.7637632389261082e-06 -9.8629660850886919e-05 -1.6169505270576711e-05 -1.5536727742882644e-05 -9.3385829121785146e-05 -2.3315815794554607e-05 -1.8713185364266297e-05 -7.7075182178263607e-05 -1.3849416612912783e-05 -1.9167991837569142e-05 -5.6519234457794805e-05 -2.230525153158765e-05 -1.1696782053631474e-05 -6.0174026294776791e-05 -2.5276755918227874e-05 -8.7637632389261082e-06 -9.8629660850886919e-05 -2.3315815794554607e-05 -1.8713185364266297e-05 -7.7075182178263607e-05 -1.3849416612912783e-05 -1.9167991837569142e-05 -5.6519234457794805e-05 -2.5276755918227874e-05 -8.7637632389261082e-06 -9.8629660850886919e-05 -1.6169505270576711e-05 -1.5536727742882644e-05 -9.3385829121785146e-05 -1.7910255129546327e-05 -1.7805727083221883e-05 -4.2178657614260981e-05 -2.3315815794554607e-05 -1.8713185364266297e-05 -7.7075182178263607e-05 -1.3849416612912783e-05 -1.9167991837569142e-05 -5.6519234457794805e-05 -2.230525153158765e-05 -1.1696782053631474e-05 -6.0174026294776791e-05 -1.7910255129546327e-05 -1.7805727083221883e-05 -4.2178657614260981e-05 -1.057577206971854e-05 -9.6141936965565508e-06 -4.093334152660912e-05 -1.3849416612912783e-05 -1.9167991837569142e-05 -5.6519234457794805e-05 -2.230525153158765e-05 -1.1696782053631474e-05 -6.0174026294776791e-05 -1.057577206971854e-05 -9.6141936965565508e-06 -4.093334152660912e-05 -5.6707463757000752e-06 -1.6007293970283027e-05 -3.4057623713578611e-05 -8.835706524859167e-06 -1.9743027005650256e-05 -7.3653878190507803e-05 -1.3849416612912783e-05 -1.9167991837569142e-05 -5.6519234457794805e-05 -1.057577206971854e-05 -9.6141936965565508e-06 -4.093334152660912e-05 -2.230525153158765e-05 -1.1696782053631474e-05 -6.0174026294776791e-05 -2.6654098848722779e-05 -4.54277461996879e-06 -8.1208248313381913e-05 -1.7901534380437189e-05 -4.3402975751544022e-06 -3.7867966821625887e-05 -1.1634378395136714e-05 -7.6511397337382133e-06 -9.6396277799975301e-05 -1.6655612598292696e-05 -2.6424594377345714e-06 -7.7266492396486257e-05 -2.164613698185685e-05 6.5510626839589812e-06 -0.00010851329759291675 -2.8035233531751549e-05 3.2394776955792352e-06 -0.00012367348896092571 -1.1634378395136714e-05 -7.6511397337382133e-06 -9.6396277799975301e-05 -2.6654098848722779e-05 -4.54277461996879e-06 -8.1208248313381913e-05 -2.8035233531751549e-05 3.2394776955792352e-06 -0.00012367348896092571 -2.5276755918227874e-05 -8.7637632389261082e-06 -9.8629660850886919e-05 -2.4668426320444477e-05 3.3848357585645073e-07 -6.5601846915752681e-05 -1.6655612598292696e-05 -2.6424594377345714e-06 -7.7266492396486257e-05 -6.070510110572021e-06 3.2993144894601196e-06 -3.7003717999181341e-05 -2.164613698185685e-05 6.5510626839589812e-06 -0.00010851329759291675 -1.057577206971854e-05 -9.6141936965565508e-06 -4.093334152660912e-05 -1.1634378395136714e-05 -7.6511397337382133e-06 -9.6396277799975301e-05 -2.6654098848722779e-05 -4.54277461996879e-06 -8.1208248313381913e-05 -1.6655612598292696e-05 -2.6424594377345714e-06 -7.7266492396486257e-05 -1.1634378395136714e-05 -7.6511397337382133e-06 -9.6396277799975301e-05 -2.6654098848722779e-05 -4.54277461996879e-06 -8.1208248313381913e-05 -1.6655612598292696e-05 -2.6424594377345714e-06 -7.7266492396486257e-05 -2.8035233531751549e-05 3.2394776955792352e-06 -0.00012367348896092571 -1.1634378395136714e-05 -7.6511397337382133e-06 -9.6396277799975301e-05 -1.6655612598292696e-05 -2.6424594377345714e-06 -7.7266492396486257e-05 -1.5232021171985866e-05 5.9192104962780047e-06 -0.00012843869078447794 -2.164613698185685e-05 6.5510626839589812e-06 -0.00010851329759291675 -1.057577206971854e-05 -9.6141936965565508e-06 -4.093334152660912e-05 -2.6654098848722779e-05 -4.54277461996879e-06 -8.1208248313381913e-05 -1.6655612598292696e-05 -2.6424594377345714e-06 -7.7266492396486257e-05 -1.7901534380437189e-05 -4.3402975751544022e-06 -3.7867966821625887e-05 -2.6654098848722779e-05 -4.54277461996879e-06 -8.1208248313381913e-05 -2.4668426320444477e-05 3.3848357585645073e-07 -6.5601846915752681e-05 -1.6655612598292696e-05 -2.6424594377345714e-06 -7.7266492396486257e-05 -1.7901534380437189e-05 -4.3402975751544022e-06 -3.7867966821625887e-05 -1.057577206971854e-05 -9.6141936965565508e-06 -4.093334152660912e-05 -1.6655612598292696e-05 -2.6424594377345714e-06 -7.7266492396486257e-05 -6.4496987856684238e-06 -7.0418930974268598e-06 -5.6099023562714015e-05 -6.9183170254669241e-06 -1.7940391412394813e-06 -3.1184486700838931e-05 -1.6655612598292696e-05 -2.6424594377345714e-06 -7.7266492396486257e-05 -6.4496987856684238e-06 -7.0418930974268598e-06 -5.6099023562714015e-05 -6.9183170254669241e-06 -1.7940391412394813e-06 -3.1184486700838931e-05 -6.070510110572021e-06 3.2993144894601196e-06 -3.7003717999181341e-05 -2.4668426320444477e-05 3.3848357585645073e-07 -6.5601846915752681e-05 -1.6655612598292696e-05 -2.6424594377345714e-06 -7.7266492396486257e-05 -6.9183170254669241e-06 -1.7940391412394813e-06 -3.1184486700838931e-05 -6.070510110572021e-06 3.2993144894601196e-06 -3.7003717999181341e-05 -2.4668426320444477e-05 3.3848357585645073e-07 -6.5601846915752681e-05 -1.6655612598292696e-05 -2.6424594377345714e-06 -7.7266492396486257e-05 -6.9183170254669241e-06 -1.7940391412394813e-06 -3.1184486700838931e-05 -1.7901534380437189e-05 -4.3402975751544022e-06 -3.7867966821625887e-05 -2.6654098848722779e-05 -4.54277461996879e-06 -8.1208248313381913e-05 -1.6655612598292696e-05 -2.6424594377345714e-06 -7.7266492396486257e-05 -2.164613698185685e-05 6.5510626839589812e-06 -0.00010851329759291675 -2.8035233531751549e-05 3.2394776955792352e-06 -0.00012367348896092571 -2.6654098848722779e-05 -4.54277461996879e-06 -8.1208248313381913e-05 -2.4668426320444477e-05 3.3848357585645073e-07 -6.5601846915752681e-05 -1.6655612598292696e-05 -2.6424594377345714e-06 -7.7266492396486257e-05 -2.164613698185685e-05 6.5510626839589812e-06 -0.00010851329759291675 -2.6654098848722779e-05 -4.54277461996879e-06 -8.1208248313381913e-05 -2.4668426320444477e-05 3.3848357585645073e-07 -6.5601846915752681e-05 -3.0848403548530001e-05 7.2323399407486202e-06 -0.00010735110829205951 -2.164613698185685e-05 6.5510626839589812e-06 -0.00010851329759291675 -1.666244462985069e-05 -3.0182771603673748e-06 -7.9030808706610528e-05 -1.6547201773483836e-05 8.4812362149237103e-06 -9.8092409607275366e-05 -2.1679151577766472e-05 5.6120455676270335e-06 -0.00011078378208170938 -1.1634378395136714e-05 -7.6511397337382133e-06 -9.6396277799975301e-05 -9.1799378668172054e-06 -1.7863152070161037e-07 -0.00010772342809322008 -1.5232021171985866e-05 5.9192104962780047e-06 -0.00012843869078447794 -5.8217344730376977e-06 2.2689130891440142e-06 -0.00012817487024655651 -1.6655612598292696e-05 -2.6424594377345714e-06 -7.7266492396486257e-05 -7.7929239235466387e-06 -4.9980706411551758e-07 -5.6573135075838524e-05 -6.9094376749601859e-06 8.4016330371721929e-06 -5.6521785819451099e-05 -1.7455608807109928e-05 6.