<?xml version="1.0"?>
<VTKFile type="UnstructuredGrid" version="0.1" byte_order="LittleEndian">
<UnstructuredGrid>
<Piece NumberOfPoints="4152" NumberOfCells="1057">
<Points>
<DataArray type="Float64" NumberOfComponents="3" format="ascii">
-0.5 -0.5 -0.5 -0.5 -0.5 -0.29999999999999999 -0.5 -0.35358983848622461 -0.35358983848622461 -0.35358983848622461 -0.5 -0.35358983848622461 -0.5 -0.5 -0.5 -0.5 -0.35358983848622461 -0.35358983848622461 -0.35358983848622461 -0.35358983848622461 -0.5 -0.35358983848622461 -0.5 -0.35358983848622461 -0.5 -0.5 -0.5 -0.5 -0.35358983848622461 -0.35358983848622461 -0.5 -0.29999999999999999 -0.5 -0.35358983848622461 -0.35358983848622461 -0.5 -0.5 -0.5 -0.5 -0.35358983848622461 -0.35358983848622461 -0.5 -0.35358983848622461 -0.5 -0.35358983848622461 -0.29999999999999999 -0.5 -0.5 -0.5 -0.35358983848622461 -0.35358983848622461 -0.35358983848622461 -0.35358983848622461 -0.5 -0.31596613500246967 -0.31596613500246978 -0.28047958697778269 -0.35358983848622461 -0.5 -0.35358983848622461 -0.5 -0.5 -0.29999999999999999 -0.5 -0.35358983848622461 -0.35358983848622461 -0.31596613500246967 -0.31596613500246978 -0.28047958697778269 -0.35358983848622461 -0.5 -0.35358983848622461 -0.5 -0.5 -0.29999999999999999 -0.5 -0.35358983848622461 -0.35358983848622461 -0.31596613500246967 -0.31596613500246978 -0.28047958697778269 -0.5 -0.33037698825050549 -0.1995291129326934 -0.5 -0.35358983848622461 -0.35358983848622461 -0.31596613500246967 -0.31596613500246978 -0.28047958697778269 -0.5 -0.33037698825050549 -0.1995291129326934 -0.5 -0.1856863617897429 -0.31766213745653071 -0.5 -0.35358983848622461 -0.35358983848622461 -0.31596613500246967 -0.31596613500246978 -0.28047958697778269 -0.33037689348530941 -0.199529177109489 -0.5 -0.5 -0.1856863617897429 -0.31766213745653071 -0.5 -0.35358983848622461 -0.35358983848622461 -0.5 -0.29999999999999999 -0.5 -0.33037689348530941 -0.199529177109489 -0.5 -0.5 -0.1856863617897429 -0.31766213745653071 -0.5 -0.35358983848622461 -0.35358983848622461 -0.5 -0.29999999999999999 -0.5 -0.35358983848622461 -0.35358983848622461 -0.5 -0.33037689348530941 -0.199529177109489 -0.5 -0.35358983848622461 -0.35358983848622461 -0.5 -0.31596613500246967 -0.31596613500246978 -0.28047958697778269 -0.1856861292320835 -0.31766229494900661 -0.5 -0.33037689348530941 -0.199529177109489 -0.5 -0.35358983848622461 -0.35358983848622461 -0.5 -0.31596613500246967 -0.31596613500246978 -0.28047958697778269 -0.1856861292320835 -0.31766229494900661 -0.5 -0.1856863617897429 -0.5 -0.31766213745653071 -0.5 -0.35358983848622461 -0.35358983848622461 -0.35358983848622461 -0.35358983848622461 -0.5 -0.31596613500246967 -0.31596613500246978 -0.28047958697778269 -0.33037689348530941 -0.199529177109489 -0.5 -0.5 -0.5 -0.29999999999999999 -0.31596613500246967 -0.31596613500246978 -0.28047958697778269 -0.35358983848622461 -0.5 -0.35358983848622461 -0.33037698825050549 -0.5 -0.1995291129326934 -0.35358983848622461 -0.35358983848622461 -0.5 -0.31596613500246967 -0.31596613500246978 -0.28047958697778269 -0.35358983848622461 -0.5 -0.35358983848622461 -0.1856863617897429 -0.5 -0.31766213745653071 -0.31596613500246967 -0.31596613500246978 -0.28047958697778269 -0.35358983848622461 -0.5 -0.35358983848622461 -0.1856863617897429 -0.5 -0.31766213745653071 -0.33037698825050549 -0.5 -0.1995291129326934 -0.35358983848622461 -0.35358983848622461 -0.5 -0.35358983848622461 -0.5 -0.35358983848622461 -0.29999999999999999 -0.5 -0.5 -0.1856863617897429 -0.5 -0.31766213745653071 -0.35358983848622461 -0.35358983848622461 -0.5 -0.29999999999999999 -0.5 -0.5 -0.1856861292320835 -0.31766229494900661 -0.5 -0.1856863617897429 -0.5 -0.31766213745653071 -0.1856861292320835 -0.31766229494900661 -0.5 -2.7257675990577429e-15 -0.23570226039551581 -0.23570226039551581 -0.041798135582931988 -0.18969697123388379 -0.5 0.01133491425873312 -0.33629338795174291 -0.5 -0.1856861292320835 -0.31766229494900661 -0.5 -0.1856863617897429 -0.5 -0.31766213745653071 -2.7257675990577429e-15 -0.23570226039551581 -0.23570226039551581 0.01133491425873312 -0.5 -0.33629338795174291 -0.1856863617897429 -0.5 -0.31766213745653071 -0.041798135582931988 -0.5 -0.18969697123388379 -2.7257675990577429e-15 -0.23570226039551581 -0.23570226039551581 0.01133491425873312 -0.5 -0.33629338795174291 -0.29999999999999999 -0.5 -0.5 -0.1856861292320835 -0.31766229494900661 -0.5 -0.099999999999999978 -0.5 -0.5 -0.1856863617897429 -0.5 -0.31766213745653071 -0.1856861292320835 -0.31766229494900661 -0.5 -0.1856863617897429 -0.5 -0.31766213745653071 -2.7257675990577429e-15 -0.23570226039551581 -0.23570226039551581 -0.1666666666666696 -0.20412414523193029 -0.20412414523193029 -0.31596613500246967 -0.31596613500246978 -0.28047958697778269 -0.1856861292320835 -0.31766229494900661 -0.5 -0.1856863617897429 -0.5 -0.31766213745653071 -0.1666666666666696 -0.20412414523193029 -0.20412414523193029 -0.1856861292320835 -0.31766229494900661 -0.5 -2.7257675990577429e-15 -0.23570226039551581 -0.23570226039551581 0.01133491425873312 -0.5 -0.33629338795174291 0.01133491425873312 -0.33629338795174291 -0.5 -0.1856861292320835 -0.31766229494900661 -0.5 -0.099999999999999978 -0.5 -0.5 0.01133491425873312 -0.5 -0.33629338795174291 0.01133491425873312 -0.33629338795174291 -0.5 -0.1856861292320835 -0.31766229494900661 -0.5 -0.099999999999999978 -0.5 -0.5 -0.1856863617897429 -0.5 -0.31766213745653071 0.01133491425873312 -0.5 -0.33629338795174291 -0.22123592096609901 -0.3021973649812888 -0.0106774749330651 -0.17275763665747901 -0.5 -0.10309905102148011 -0.1666666666666696 -0.20412414523193029 -0.20412414523193029 0.00067135502960021269 -0.28339836897428089 0.009853789173576849 -0.041798135582931988 -0.5 -0.18969697123388379 -0.17275763665747901 -0.5 -0.10309905102148011 -0.1666666666666696 -0.20412414523193029 -0.20412414523193029 0.00067135502960021269 -0.28339836897428089 0.009853789173576849 -0.31596613500246967 -0.31596613500246978 -0.28047958697778269 -0.22123592096609901 -0.3021973649812888 -0.0106774749330651 -0.17275763665747901 -0.5 -0.10309905102148011 -0.1666666666666696 -0.20412414523193029 -0.20412414523193029 -0.041798135582931988 -0.5 -0.18969697123388379 -2.7257675990577429e-15 -0.23570226039551581 -0.23570226039551581 -0.1666666666666696 -0.20412414523193029 -0.20412414523193029 0.00067135502960021269 -0.28339836897428089 0.009853789173576849 -0.31596613500246967 -0.31596613500246978 -0.28047958697778269 -0.1856863617897429 -0.5 -0.31766213745653071 -0.17275763665747901 -0.5 -0.10309905102148011 -0.1666666666666696 -0.20412414523193029 -0.20412414523193029 -0.1856863617897429 -0.5 -0.31766213745653071 -0.041798135582931988 -0.5 -0.18969697123388379 -2.7257675990577429e-15 -0.23570226039551581 -0.23570226039551581 -0.1666666666666696 -0.20412414523193029 -0.20412414523193029 -0.1856863617897429 -0.5 -0.31766213745653071 -0.041798135582931988 -0.5 -0.18969697123388379 -0.17275763665747901 -0.5 -0.10309905102148011 -0.1666666666666696 -0.20412414523193029 -0.20412414523193029 -0.22123592096609901 -0.3021973649812888 -0.0106774749330651 -0.17275763665747901 -0.5 -0.10309905102148011 0.019615242270663021 -0.5 1.110223024625157e-16 0.00067135502960021269 -0.28339836897428089 0.009853789173576849 -0.041798135582931988 -0.5 -0.18969697123388379 -0.17275763665747901 -0.5 -0.10309905102148011 0.019615242270663021 -0.5 1.110223024625157e-16 0.00067135502960021269 -0.28339836897428089 0.009853789173576849 -0.22123592096609901 -0.3021973649812888 -0.0106774749330651 -0.17275763665747901 -0.5 -0.10309905102148011 -0.32679491924311233 -0.5 0 -0.1705807092817119 -0.5 0.1035600170507085 -0.22123592096609901 -0.3021973649812888 -0.0106774749330651 -0.17275763665747901 -0.5 -0.10309905102148011 0.019615242270663021 -0.5 1.110223024625157e-16 -0.1705807092817119 -0.5 0.1035600170507085 -0.22123592096609901 -0.3021973649812888 -0.0106774749330651 -0.17275763665747901 -0.5 -0.10309905102148011 -0.33037698825050549 -0.5 -0.1995291129326934 -0.32679491924311233 -0.5 0 -0.31596613500246967 -0.31596613500246978 -0.28047958697778269 -0.22123592096609901 -0.3021973649812888 -0.0106774749330651 -0.33037698825050549 -0.5 -0.1995291129326934 -0.5 -0.33037698825050549 -0.1995291129326934 -0.22123592096609901 -0.3021973649812888 -0.0106774749330651 -0.5 -0.33037698825050549 -0.1995291129326934 -0.5 -0.17275763665747901 -0.10309905102148011 -0.5 -0.32679491924311233 0 -0.31596613500246967 -0.31596613500246978 -0.28047958697778269 -0.22123592096609901 -0.3021973649812888 -0.0106774749330651 -0.17275763665747901 -0.5 -0.10309905102148011 -0.33037698825050549 -0.5 -0.1995291129326934 -0.22123592096609901 -0.3021973649812888 -0.0106774749330651 -0.33037698825050549 -0.5 -0.1995291129326934 -0.5 -0.33037698825050549 -0.1995291129326934 -0.5 -0.32679491924311233 0 -0.31596613500246967 -0.31596613500246978 -0.28047958697778269 -0.22123592096609901 -0.3021973649812888 -0.0106774749330651 -0.5 -0.33037698825050549 -0.1995291129326934 -0.5 -0.17275763665747901 -0.10309905102148011 -0.22123592096609901 -0.3021973649812888 -0.0106774749330651 -0.33037698825050549 -0.5 -0.1995291129326934 -0.5 -0.32679491924311233 0 -0.32679491924311233 -0.5 0 -0.5 -0.5 -0.099999999999999978 -0.33037698825050549 -0.5 -0.1995291129326934 -0.5 -0.33037698825050549 -0.1995291129326934 -0.5 -0.32679491924311233 0 -0.5 -0.5 -0.099999999999999978 -0.33037698825050549 -0.5 -0.1995291129326934 -0.5 -0.32679491924311233 0 -0.32679491924311233 -0.5 0 -0.5 -0.5 -0.29999999999999999 -0.5 -0.5 -0.099999999999999978 -0.33037698825050549 -0.5 -0.1995291129326934 -0.5 -0.33037698825050549 -0.1995291129326934 -0.5 -0.5 -0.29999999999999999 -0.31596613500246967 -0.31596613500246978 -0.28047958697778269 -0.33037698825050549 -0.5 -0.1995291129326934 -0.5 -0.33037698825050549 -0.1995291129326934 -0.31596613500246967 -0.31596613500246978 -0.28047958697778269 -0.1856863617897429 -0.5 -0.31766213745653071 -0.17275763665747901 -0.5 -0.10309905102148011 -0.33037698825050549 -0.5 -0.1995291129326934 -0.
[...]
<PointData Scalars="" Vectors="displacement," Tensors="">
<DataArray type="Float64" Name="displacement" NumberOfComponents="3" format="ascii">
2.640371103181105e-17 -1.0492027711049567e-16 -4.0345873343616834e-17 -1.7910255129628622e-05 -1.7805727083230032e-05 -4.2178657614181007e-05 -1.4091930491931657e-05 -7.9882705114162766e-06 -2.8923425018335116e-05 -8.296645345762909e-06 -1.4438311027081021e-05 -2.8808045128206381e-05 2.640371103181105e-17 -1.0492027711049567e-16 -4.0345873343616834e-17 -1.4091930491931657e-05 -7.9882705114162766e-06 -2.8923425018335116e-05 -4.6329314083021211e-17 -2.0935096917747836e-16 -1.7916440900322961e-16 -8.296645345762909e-06 -1.4438311027081021e-05 -2.8808045128206381e-05 2.640371103181105e-17 -1.0492027711049567e-16 -4.0345873343616834e-17 -1.4091930491931657e-05 -7.9882705114162766e-06 -2.8923425018335116e-05 2.8595832299305179e-18 -9.2445175863334339e-17 3.8448519541767201e-17 -4.6329314083021211e-17 -2.0935096917747836e-16 -1.7916440900322961e-16 2.640371103181105e-17 -1.0492027711049567e-16 -4.0345873343616834e-17 -4.6329314083021211e-17 -2.0935096917747836e-16 -1.7916440900322961e-16 -8.296645345762909e-06 -1.4438311027081021e-05 -2.8808045128206381e-05 1.0777816627453168e-16 -2.4002880846113461e-16 -2.386871082726838e-16 -1.4091930491931657e-05 -7.9882705114162766e-06 -2.8923425018335116e-05 -4.6329314083021211e-17 -2.0935096917747836e-16 -1.7916440900322961e-16 -1.0575772069790466e-05 -9.6141936965724801e-06 -4.0933341526553528e-05 -8.296645345762909e-06 -1.4438311027081021e-05 -2.8808045128206381e-05 -1.7910255129628622e-05 -1.7805727083230032e-05 -4.2178657614181007e-05 -1.4091930491931657e-05 -7.9882705114162766e-06 -2.8923425018335116e-05 -1.0575772069790466e-05 -9.6141936965724801e-06 -4.0933341526553528e-05 -8.296645345762909e-06 -1.4438311027081021e-05 -2.8808045128206381e-05 -1.7910255129628622e-05 -1.7805727083230032e-05 -4.2178657614181007e-05 -1.4091930491931657e-05 -7.9882705114162766e-06 -2.8923425018335116e-05 -1.0575772069790466e-05 -9.6141936965724801e-06 -4.0933341526553528e-05 -2.2305251531654491e-05 -1.169678205363349e-05 -6.0174026294707172e-05 -1.4091930491931657e-05 -7.9882705114162766e-06 -2.8923425018335116e-05 -1.0575772069790466e-05 -9.6141936965724801e-06 -4.0933341526553528e-05 -2.2305251531654491e-05 -1.169678205363349e-05 -6.0174026294707172e-05 -1.7901534380505415e-05 -4.3402975751636264e-06 -3.786796682156509e-05 -1.4091930491931657e-05 -7.9882705114162766e-06 -2.8923425018335116e-05 -1.0575772069790466e-05 -9.6141936965724801e-06 -4.0933341526553528e-05 1.3416493664739765e-16 -5.744408041689214e-17 -4.1159024972980962e-17 -1.7901534380505415e-05 -4.3402975751636264e-06 -3.786796682156509e-05 -1.4091930491931657e-05 -7.9882705114162766e-06 -2.8923425018335116e-05 2.8595832299305179e-18 -9.2445175863334339e-17 3.8448519541767201e-17 1.3416493664739765e-16 -5.744408041689214e-17 -4.1159024972980962e-17 -1.7901534380505415e-05 -4.3402975751636264e-06 -3.786796682156509e-05 -1.4091930491931657e-05 -7.9882705114162766e-06 -2.8923425018335116e-05 2.8595832299305179e-18 -9.2445175863334339e-17 3.8448519541767201e-17 -4.6329314083021211e-17 -2.0935096917747836e-16 -1.7916440900322961e-16 1.3416493664739765e-16 -5.744408041689214e-17 -4.1159024972980962e-17 -4.6329314083021211e-17 -2.0935096917747836e-16 -1.7916440900322961e-16 -1.0575772069790466e-05 -9.6141936965724801e-06 -4.0933341526553528e-05 -1.2229969912225941e-16 -1.6742453235428501e-16 1.7103289270958832e-16 1.3416493664739765e-16 -5.744408041689214e-17 -4.1159024972980962e-17 -4.6329314083021211e-17 -2.0935096917747836e-16 -1.7916440900322961e-16 -1.0575772069790466e-05 -9.6141936965724801e-06 -4.0933341526553528e-05 -1.2229969912225941e-16 -1.6742453235428501e-16 1.7103289270958832e-16 -5.6707463755818066e-06 -1.6007293970269444e-05 -3.4057623713680173e-05 -1.4091930491931657e-05 -7.9882705114162766e-06 -2.8923425018335116e-05 -4.6329314083021211e-17 -2.0935096917747836e-16 -1.7916440900322961e-16 -1.0575772069790466e-05 -9.6141936965724801e-06 -4.0933341526553528e-05 1.3416493664739765e-16 -5.744408041689214e-17 -4.1159024972980962e-17 -1.7910255129628622e-05 -1.7805727083230032e-05 -4.2178657614181007e-05 -1.0575772069790466e-05 -9.6141936965724801e-06 -4.0933341526553528e-05 -8.296645345762909e-06 -1.4438311027081021e-05 -2.8808045128206381e-05 -1.384941661289414e-05 -1.9167991837571015e-05 -5.6519234457808005e-05 -4.6329314083021211e-17 -2.0935096917747836e-16 -1.7916440900322961e-16 -1.0575772069790466e-05 -9.6141936965724801e-06 -4.0933341526553528e-05 -8.296645345762909e-06 -1.4438311027081021e-05 -2.8808045128206381e-05 -5.6707463755818066e-06 -1.6007293970269444e-05 -3.4057623713680173e-05 -1.0575772069790466e-05 -9.6141936965724801e-06 -4.0933341526553528e-05 -8.296645345762909e-06 -1.4438311027081021e-05 -2.8808045128206381e-05 -5.6707463755818066e-06 -1.6007293970269444e-05 -3.4057623713680173e-05 -1.384941661289414e-05 -1.9167991837571015e-05 -5.6519234457808005e-05 -4.6329314083021211e-17 -2.0935096917747836e-16 -1.7916440900322961e-16 -8.296645345762909e-06 -1.4438311027081021e-05 -2.8808045128206381e-05 1.0777816627453168e-16 -2.4002880846113461e-16 -2.386871082726838e-16 -5.6707463755818066e-06 -1.6007293970269444e-05 -3.4057623713680173e-05 -4.6329314083021211e-17 -2.0935096917747836e-16 -1.7916440900322961e-16 1.0777816627453168e-16 -2.4002880846113461e-16 -2.386871082726838e-16 -1.2229969912225941e-16 -1.6742453235428501e-16 1.7103289270958832e-16 -5.6707463755818066e-06 -1.6007293970269444e-05 -3.4057623713680173e-05 -1.2229969912225941e-16 -1.6742453235428501e-16 1.7103289270958832e-16 -1.5850958008322064e-07 -7.9989365174737498e-06 -4.8615824959006971e-05 -5.6631775820475266e-17 -1.1474924743043458e-16 -4.5577148825859393e-17 -4.3488365577930288e-17 -1.7196462895156805e-16 1.7261853838684837e-16 -1.2229969912225941e-16 -1.6742453235428501e-16 1.7103289270958832e-16 -5.6707463755818066e-06 -1.6007293970269444e-05 -3.4057623713680173e-05 -1.5850958008322064e-07 -7.9989365174737498e-06 -4.8615824959006971e-05 -1.3000994229292759e-07 -1.529658276402346e-05 -3.0167735949727877e-05 -5.6707463755818066e-06 -1.6007293970269444e-05 -3.4057623713680173e-05 -2.6341295397955859e-06 -2.0946320013159339e-05 -5.8304928684300437e-05 -1.5850958008322064e-07 -7.9989365174737498e-06 -4.8615824959006971e-05 -1.3000994229292759e-07 -1.529658276402346e-05 -3.0167735949727877e-05 1.0777816627453168e-16 -2.4002880846113461e-16 -2.386871082726838e-16 -1.2229969912225941e-16 -1.6742453235428501e-16 1.7103289270958832e-16 8.2255369507865106e-17 -1.8286763704862541e-16 1.8206464981462833e-16 -5.6707463755818066e-06 -1.6007293970269444e-05 -3.4057623713680173e-05 -1.2229969912225941e-16 -1.6742453235428501e-16 1.7103289270958832e-16 -5.6707463755818066e-06 -1.6007293970269444e-05 -3.4057623713680173e-05 -1.5850958008322064e-07 -7.9989365174737498e-06 -4.8615824959006971e-05 -6.4496987855715816e-06 -7.0418930974150954e-06 -5.6099023562807243e-05 -1.0575772069790466e-05 -9.6141936965724801e-06 -4.0933341526553528e-05 -1.2229969912225941e-16 -1.6742453235428501e-16 1.7103289270958832e-16 -5.6707463755818066e-06 -1.6007293970269444e-05 -3.4057623713680173e-05 -6.4496987855715816e-06 -7.0418930974150954e-06 -5.6099023562807243e-05 -1.2229969912225941e-16 -1.6742453235428501e-16 1.7103289270958832e-16 -1.5850958008322064e-07 -7.9989365174737498e-06 -4.8615824959006971e-05 -1.3000994229292759e-07 -1.529658276402346e-05 -3.0167735949727877e-05 -4.3488365577930288e-17 -1.7196462895156805e-16 1.7261853838684837e-16 -1.2229969912225941e-16 -1.6742453235428501e-16 1.7103289270958832e-16 8.2255369507865106e-17 -1.8286763704862541e-16 1.8206464981462833e-16 -1.3000994229292759e-07 -1.529658276402346e-05 -3.0167735949727877e-05 -4.3488365577930288e-17 -1.7196462895156805e-16 1.7261853838684837e-16 -1.2229969912225941e-16 -1.6742453235428501e-16 1.7103289270958832e-16 8.2255369507865106e-17 -1.8286763704862541e-16 1.8206464981462833e-16 -5.6707463755818066e-06 -1.6007293970269444e-05 -3.4057623713680173e-05 -1.3000994229292759e-07 -1.529658276402346e-05 -3.0167735949727877e-05 -1.1634378395143878e-05 -7.6511397337198005e-06 -9.6396277800094496e-05 -8.8357065248440644e-06 -1.9743027005637534e-05 -7.3653878190603145e-05 -6.4496987855715816e-06 -7.0418930974150954e-06 -5.6099023562807243e-05 -6.4811900385416898e-08 -6.3292155065627514e-06 -0.00010574975739645012 -2.6341295397955859e-06 -2.0946320013159339e-05 -5.8304928684300437e-05 -8.8357065248440644e-06 -1.9743027005637534e-05 -7.3653878190603145e-05 -6.4496987855715816e-06 -7.0418930974150954e-06 -5.6099023562807243e-05 -6.4811900385416898e-08 -6.3292155065627514e-06 -0.00010574975739645012 -1.0575772069790466e-05 -9.6141936965724801e-06 -4.0933341526553528e-05 -1.1634378395143878e-05 -7.6511397337198005e-06 -9.6396277800094496e-05 -8.8357065248440644e-06 -1.9743027005637534e-05 -7.3653878190603145e-05 -6.4496987855715816e-06 -7.0418930974150954e-06 -5.6099023562807243e-05 -2.6341295397955859e-06 -2.0946320013159339e-05 -5.8304928684300437e-05 -1.5850958008322064e-07 -7.9989365174737498e-06 -4.8615824959006971e-05 -6.4496987855715816e-06 -7.0418930974150954e-06 -5.6099023562807243e-05 -6.4811900385416898e-08 -6.3292155065627514e-06 -0.00010574975739645012 -1.0575772069790466e-05 -9.6141936965724801e-06 -4.0933341526553528e-05 -5.6707463755818066e-06 -1.6007293970269444e-05 -3.4057623713680173e-05 -8.8357065248440644e-06 -1.9743027005637534e-05 -7.3653878190603145e-05 -6.4496987855715816e-06 -7.0418930974150954e-06 -5.6099023562807243e-05 -5.6707463755818066e-06 -1.6007293970269444e-05 -3.4057623713680173e-05 -2.6341295397955859e-06 -2.0946320013159339e-05 -5.8304928684300437e-05 -1.5850958008322064e-07 -7.9989365174737498e-06 -4.8615824959006971e-05 -6.4496987855715816e-06 -7.0418930974150954e-06 -5.6099023562807243e-05 -5.6707463755818066e-06 -1.6007293970269444e-05 -3.4057623713680173e-05 -2.6341295397955859e-06 -2.0946320013159339e-05 -5.8304928684300437e-05 -8.8357065248440644e-06 -1.9743027005637534e-05 -7.3653878190603145e-05 -6.4496987855715816e-06 -7.0418930974150954e-06 -5.6099023562807243e-05 -1.1634378395143878e-05 -7.6511397337198005e-06 -9.6396277800094496e-05 -8.8357065248440644e-06 -1.9743027005637534e-05 -7.3653878190603145e-05 8.8588325278148687e-07 -1.6265749511906811e-05 -9.5880547069579725e-05 -6.4811900385416898e-08 -6.3292155065627514e-06 -0.00010574975739645012 -2.6341295397955859e-06 -2.0946320013159339e-05 -5.8304928684300437e-05 -8.8357065248440644e-06 -1.9743027005637534e-05 -7.3653878190603145e-05 8.8588325278148687e-07 -1.6265749511906811e-05 -9.5880547069579725e-05 -6.4811900385416898e-08 -6.3292155065627514e-06 -0.00010574975739645012 -1.1634378395143878e-05 -7.6511397337198005e-06 -9.6396277800094496e-05 -8.8357065248440644e-06 -1.9743027005637534e-05 -7.3653878190603145e-05 -1.6169505270562512e-05 -1.5536727742885886e-05 -9.338582912179821e-05 -8.3346183119491485e-06 -1.2174126709111145e-05 -0.0001126426447019782 -1.1634378395143878e-05 -7.6511397337198005e-06 -9.6396277800094496e-05 -8.8357065248440644e-06 -1.9743027005637534e-05 -7.3653878190603145e-05 8.8588325278148687e-07 -1.6265749511906811e-05 -9.5880547069579725e-05 -8.3346183119491485e-06 -1.2174126709111145e-05 -0.0001126426447019782 -1.1634378395143878e-05 -7.6511397337198005e-06 -9.6396277800094496e-05 -8.8357065248440644e-06 -1.9743027005637534e-05 -7.3653878190603145e-05 -1.384941661289414e-05 -1.9167991837571015e-05 -5.6519234457808005e-05 -1.6169505270562512e-05 -1.5536727742885886e-05 -9.338582912179821e-05 -1.0575772069790466e-05 -9.6141936965724801e-06 -4.0933341526553528e-05 -1.1634378395143878e-05 -7.6511397337198005e-06 -9.6396277800094496e-05 -1.384941661289414e-05 -1.9167991837571015e-05 -5.6519234457808005e-05 -2.2305251531654491e-05 -1.169678205363349e-05 -6.0174026294707172e-05 -1.1634378395143878e-05 -7.6511397337198005e-06 -9.6396277800094496e-05 -2.2305251531654491e-05 -1.169678205363349e-05 -6.0174026294707172e-05 -2.6654098848775041e-05 -4.5427746199649191e-06 -8.1208248313321916e-05 -2.5276755918214827e-05 -8.763763238930501e-06 -9.8629660850902667e-05 -1.0575772069790466e-05 -9.6141936965724801e-06 -4.0933341526553528e-05 -1.1634378395143878e-05 -7.6511397337198005e-06 -9.6396277800094496e-05 -8.8357065248440644e-06 -1.9743027005637534e-05 -7.3653878190603145e-05 -1.384941661289414e-05 -1.9167991837571015e-05 -5.6519234457808005e-05 -1.1634378395143878e-05 -7.6511397337198005e-06 -9.6396277800094496e-05 -1.384941661289414e-05 -1.9167991837571015e-05 -5.6519234457808005e-05 -2.2305251531654491e-05 -1.169678205363349e-05 -6.0174026294707172e-05 -2.5276755918214827e-05 -8.763763238930501e-06 -9.8629660850902667e-05 -1.0575772069790466e-05 -9.6141936965724801e-06 -4.0933341526553528e-05 -1.1634378395143878e-05 -7.6511397337198005e-06 -9.6396277800094496e-05 -2.2305251531654491e-05 -1.169678205363349e-05 -6.0174026294707172e-05 -2.6654098848775041e-05 -4.5427746199649191e-06 -8.1208248313321916e-05 -1.1634378395143878e-05 -7.6511397337198005e-06 -9.6396277800094496e-05 -1.384941661289414e-05 -1.9167991837571015e-05 -5.6519234457808005e-05 -2.5276755918214827e-05 -8.763763238930501e-06 -9.8629660850902667e-05 -1.6169505270562512e-05 -1.5536727742885886e-05 -9.338582912179821e-05 -2.3315815794538181e-05 -1.8713185364269997e-05 -7.7075182178280575e-05 -1.384941661289414e-05 -1.9167991837571015e-05 -5.6519234457808005e-05 -2.2305251531654491e-05 -1.169678205363349e-05 -6.0174026294707172e-05 -2.5276755918214827e-05 -8.763763238930501e-06 -9.8629660850902667e-05 -2.3315815794538181e-05 -1.8713185364269997e-05 -7.7075182178280575e-05 -1.384941661289414e-05 -1.9167991837571015e-05 -5.6519234457808005e-05 -2.5276755918214827e-05 -8.763763238930501e-06 -9.8629660850902667e-05 -1.6169505270562512e-05 -1.5536727742885886e-05 -9.338582912179821e-05 -1.7910255129628622e-05 -1.7805727083230032e-05 -4.2178657614181007e-05 -2.3315815794538181e-05 -1.8713185364269997e-05 -7.7075182178280575e-05 -1.384941661289414e-05 -1.9167991837571015e-05 -5.6519234457808005e-05 -2.2305251531654491e-05 -1.169678205363349e-05 -6.0174026294707172e-05 -1.7910255129628622e-05 -1.7805727083230032e-05 -4.2178657614181007e-05 -1.0575772069790466e-05 -9.6141936965724801e-06 -4.0933341526553528e-05 -1.384941661289414e-05 -1.9167991837571015e-05 -5.6519234457808005e-05 -2.2305251531654491e-05 -1.169678205363349e-05 -6.0174026294707172e-05 -1.0575772069790466e-05 -9.6141936965724801e-06 -4.0933341526553528e-05 -5.6707463755818066e-06 -1.6007293970269444e-05 -3.4057623713680173e-05 -8.8357065248440644e-06 -1.9743027005637534e-05 -7.3653878190603145e-05 -1.384941661289414e-05 -1.9167991837571015e-05 -5.6519234457808005e-05 -1.0575772069790466e-05 -9.6141936965724801e-06 -4.0933341526553528e-05 -2.2305251531654491e-05 -1.169678205363349e-05 -6.0174026294707172e-05 -2.6654098848775041e-05 -4.5427746199649191e-06 -8.1208248313321916e-05 -1.7901534380505415e-05 -4.3402975751636264e-06 -3.786796682156509e-05 -1.1634378395143878e-05 -7.6511397337198005e-06 -9.6396277800094496e-05 -1.6655612598227668e-05 -2.6424594377088944e-06 -7.7266492396638371e-05 -2.1646136981893319e-05 6.551062683961014e-06 -0.00010851329759287921 -2.8035233531741845e-05 3.2394776955741182e-06 -0.0001236734889609404 -1.1634378395143878e-05 -7.6511397337198005e-06 -9.6396277800094496e-05 -2.6654098848775041e-05 -4.5427746199649191e-06 -8.1208248313321916e-05 -2.8035233531741845e-05 3.2394776955741182e-06 -0.0001236734889609404 -2.5276755918214827e-05 -8.763763238930501e-06 -9.8629660850902667e-05 -2.4668426320496542e-05 3.3848357585503449e-07 -6.5601846915700667e-05 -1.6655612598227668e-05 -2.6424594377088944e-06 -7.7266492396638371e-05 -6.070510110414395e-06 3.299314489485279e-06 -3.7003717999333509e-05 -2.1646136981893319e-05 6.551062683961014e-06 -0.00010851329759287921 -1.0575772069790466e-05 -9.6141936965724801e-06 -4.0933341526553528e-05 -1.1634378395143878e-05 -7.6511397337198005e-06 -9.6396277800094496e-05 -2.6654098848775041e-05 -4.5427746199649191e-06 -8.1208248313321916e-05 -1.6655612598227668e-05 -2.6424594377088944e-06 -7.7266492396638371e-05 -1.1634378395143878e-05 -7.6511397337198005e-06 -9.6396277800094496e-05 -2.6654098848775041e-05 -4.5427746199649191e-06 -8.1208248313321916e-05 -1.6655612598227668e-05 -2.6424594377088944e-06 -7.7266492396638371e-05 -2.8035233531741845e-05 3.2394776955741182e-06 -0.0001236734889609404 -1.1634378395143878e-05 -7.6511397337198005e-06 -9.6396277800094496e-05 -1.6655612598227668e-05 -2.6424594377088944e-06 -7.7266492396638371e-05 -1.523202117196429e-05 5.9192104962963632e-06 -0.00012843869078459761 -2.1646136981893319e-05 6.551062683961014e-06 -0.00010851329759287921 -1.0575772069790466e-05 -9.6141936965724801e-06 -4.0933341526553528e-05 -2.6654098848775041e-05 -4.5427746199649191e-06 -8.1208248313321916e-05 -1.6655612598227668e-05 -2.6424594377088944e-06 -7.7266492396638371e-05 -1.7901534380505415e-05 -4.3402975751636264e-06 -3.786796682156509e-05 -2.6654098848775041e-05 -4.5427746199649191e-06 -8.1208248313321916e-05 -2.4668426320496542e-05 3.3848357585503449e-07 -6.5601846915700667e-05 -1.6655612598227668e-05 -2.6424594377088944e-06 -7.7266492396638371e-05 -1.7901534380505415e-05 -4.3402975751636264e-06 -3.786796682156509e-05 -1.0575772069790466e-05 -9.6141936965724801e-06 -4.0933341526553528e-05 -1.6655612598227668e-05 -2.6424594377088944e-06 -7.7266492396638371e-05 -6.4496987855715816e-06 -7.0418930974150954e-06 -5.6099023562807243e-05 -6.9183170253029826e-06 -1.794039141214172e-06 -3.1184486700991912e-05 -1.6655612598227668e-05 -2.6424594377088944e-06 -7.7266492396638371e-05 -6.4496987855715816e-06 -7.0418930974150954e-06 -5.6099023562807243e-05 -6.9183170253029826e-06 -1.794039141214172e-06 -3.1184486700991912e-05 -6.070510110414395e-06 3.299314489485279e-06 -3.7003717999333509e-05 -2.4668426320496542e-05 3.3848357585503449e-07 -6.5601846915700667e-05 -1.6655612598227668e-05 -2.6424594377088944e-06 -7.7266492396638371e-05 -6.9183170253029826e-06 -1.794039141214172e-06 -3.1184486700991912e-05 -6.070510110414395e-06 3.299314489485279e-06 -3.7003717999333509e-05 -2.4668426320496542e-05 3.3848357585503449e-07 -6.5601846915700667e-05 -1.6655612598227668e-05 -2.6424594377088944e-06 -7.7266492396638371e-05 -6.9183170253029826e-06 -1.794039141214172e-06 -3.1184486700991912e-05 -1.7901534380505415e-05 -4.3402975751636264e-06 -3.786796682156509e-05 -2.6654098848775041e-05 -4.5427746199649191e-06 -8.1208248313321916e-05 -1.6655612598227668e-05 -2.6424594377088944e-06 -7.7266492396638371e-05 -2.1646136981893319e-05 6.551062683961014e-06 -0.00010851329759287921 -2.8035233531741845e-05 3.2394776955741182e-06 -0.0001236734889609404 -2.6654098848775041e-05 -4.5427746199649191e-06 -8.1208248313321916e-05 -2.4668426320496542e-05 3.3848357585503449e-07 -6.5601846915700667e-05 -1.6655612598227668e-05 -2.6424594377088944e-06 -7.7266492396638371e-05 -2.1646136981893319e-05 6.551062683961014e-06 -0.00010851329759287921 -2.6654098848775041e-05 -4.5427746199649191e-06 -8.1208248313321916e-05 -2.4668426320496542e-05 3.3848357585503449e-07 -6.5601846915700667e-05 -3.0848403548565515e-05 7.2323399407587812e-06 -0.00010735110829201123 -2.1646136981893319e-05 6.551062683961014e-06 -0.00010851329759287921 -1.6662444629785661e-05 -3.0182771603416979e-06 -7.9030808706762642e-05 -1.654720177346226e-05 8.4812362149420689e-06 -9.8092409607395035e-05 -2.1679151577802942e-05 5.6120455676290664e-06 -0.00011078378208167184 -1.1634378395143878e-05 -7.6511397337198005e-06 -9.6396277800094496e-05 -9.1799378667624414e-06 -1.7863152069173905e-07 -0.00010772342809330414 -1.523202117196429e-05 5.9192104962963632e-06 -0.00012843869078459761 -5.8217344730243841e-06 2.2689130891465722e-06 -0.00012817487024660817 -1.6655612598227668e-05 -2.6424594377088944e-06 -7.7266492396638371e-05 -7.7929239234918746e-06 -4.9980706410564625e-07 -5.657313507592259e-05 -6.9094376748547151e-06 8.4016330371912834e-06 -5.6521785819575972e-05 -