<?xml version="1.0"?>
<VTKFile type="UnstructuredGrid" version="0.1" byte_order="LittleEndian">
<UnstructuredGrid>
<Piece NumberOfPoints="902" NumberOfCells="306">
<Points>
<DataArray type="Float64" NumberOfComponents="3" format="ascii">
0 0 0 0.073205080756622284 0.073205080756783406 0 0.099999999999814668 0 0 0 0 0 0 0.10000000000041601 0 0.073205080756622284 0.073205080756783406 0 0 0.10000000000041601 0 0.073205080756622284 0.073205080756783406 0 0.091402515083494409 0.15708578875639231 0 0.073205080756622284 0.073205080756783406 0 0.091402515083494409 0.15708578875639231 0 0.15027753147047779 0.085031708671012771 0 0.073205080756622284 0.073205080756783406 0 0.099999999999814668 0 0 0.15027753147047779 0.085031708671012771 0 0 0.20000000000083221 0 0.091402515083494409 0.15708578875639231 0 0.081883829897837504 0.25483250623203502 0 0 0.10000000000041601 0 0 0.20000000000083221 0 0.091402515083494409 0.15708578875639231 0 0.091402515083494409 0.15708578875639231 0 0.15549563120825899 0.22728761896597441 0 0.081883829897837504 0.25483250623203502 0 0.091402515083494409 0.15708578875639231 0 0.15549563120825899 0.22728761896597441 0 0.19770415439635231 0.16188916215834151 0 0.091402515083494409 0.15708578875639231 0 0.19770415439635231 0.16188916215834151 0 0.15027753147047779 0.085031708671012771 0 0.19770415439635231 0.16188916215834151 0 0.24865572115759171 0.085435742792086475 0 0.29474128210898343 0.16200542811217281 0 0.15549563120825899 0.22728761896597441 0 0.19770415439635231 0.16188916215834151 0 0.25 0.25 0 0.19770415439635231 0.16188916215834151 0 0.29474128210898343 0.16200542811217281 0 0.25 0.25 0 0.099999999999814668 0 0 0.15027753147047779 0.085031708671012771 0 0.19999999999955789 0 0 0.19770415439635231 0.16188916215834151 0 0.15027753147047779 0.085031708671012771 0 0.24865572115759171 0.085435742792086475 0 0.15027753147047779 0.085031708671012771 0 0.24865572115759171 0.085435742792086475 0 0.19999999999955789 0 0 0.24865572115759171 0.085435742792086475 0 0.19999999999955789 0 0 0.29999999999926641 0 0 0.24865572115759171 0.085435742792086475 0 0.29999999999926641 0 0 0.34895628004087342 0.081718455239699395 0 0.29999999999926641 0 0 0.34895628004087342 0.081718455239699395 0 0.3999999999989749 0 0 0.24865572115759171 0.085435742792086475 0 0.34895628004087342 0.081718455239699395 0 0.29474128210898343 0.16200542811217281 0 0.29474128210898343 0.16200542811217281 0 0.3464199946918517 0.23853139853342401 0 0.25 0.25 0 0.29474128210898343 0.16200542811217281 0 0.3464199946918517 0.23853139853342401 0 0.40494618262236548 0.1650662896072117 0 0.34895628004087342 0.081718455239699395 0 0.29474128210898343 0.16200542811217281 0 0.40494618262236548 0.1650662896072117 0 0.3464199946918517 0.23853139853342401 0 0.40494618262236548 0.1650662896072117 0 0.42061435012922882 0.23794897811370561 0 0.42061435012922882 0.23794897811370561 0 0.49638486706945439 0.2121184447907791 0 0.48197160777613701 0.29296902118871587 0 0.40494618262236548 0.1650662896072117 0 0.42061435012922882 0.23794897811370561 0 0.49638486706945439 0.2121184447907791 0 0.40494618262236548 0.1650662896072117 0 0.49638486706945439 0.2121184447907791 0 0.49677298727352631 0.1419426259588793 0 0.40494618262236548 0.1650662896072117 0 0.49677298727352631 0.1419426259588793 0 0.44949959448178062 0.082308188761819806 0 0.49677298727352631 0.1419426259588793 0 0.44949959448178062 0.082308188761819806 0 0.54912436800118414 0.07923269986872096 0 0.44949959448178062 0.082308188761819806 0 0.49999999999869432 0 0 0.54912436800118414 0.07923269986872096 0 0.44949959448178062 0.082308188761819806 0 0.49999999999869432 0 0 0.3999999999989749 0 0 0.34895628004087342 0.081718455239699395 0 0.44949959448178062 0.082308188761819806 0 0.3999999999989749 0 0 0.34895628004087342 0.081718455239699395 0 0.40494618262236548 0.1650662896072117 0 0.44949959448178062 0.082308188761819806 0 0.4375 0.4375 0 0.375 0.375 0 0.37209049300057639 0.44668163221273938 0 0.4375 0.4375 0 0.45958432544769412 0.36572680929244022 0 0.375 0.375 0 0.4375 0.4375 0 0.375 0.375 0 0.4375 0.4375 0 0.37209049300057639 0.44668163221273938 0 0.41666666666666657 0.5 0 0.4375 0.4375 0 0.5 0.5 0 0.51443730641548846 0.4230626935845116 0 0.4375 0.4375 0 0.41666666666666657 0.5 0 0.5 0.5 0 0.4375 0.4375 0 0.5 0.5 0 0.4375 0.4375 0 0.45958432544769412 0.36572680929244022 0 0.51443730641548846 0.4230626935845116 0 0.45958432544769412 0.36572680929244022 0 0.48197160777613701 0.29296902118871587 0 0.53795066522196777 0.35232980433802918 0 0.45958432544769412 0.36572680929244022 0 0.48197160777613701 0.29296902118871587 0 0.39571815329053278 0.30366769536745408 0 0.3464199946918517 0.23853139853342401 0 0.42061435012922882 0.23794897811370561 0 0.39571815329053278 0.30366769536745408 0 0.42061435012922882 0.23794897811370561 0 0.48197160777613701 0.29296902118871587 0 0.39571815329053278 0.30366769536745408 0 0.45958432544769412 0.36572680929244022 0 0.39571815329053278 0.30366769536745408 0 0.375 0.375 0 0.375 0.375 0 0.3125 0.3125 0 0.29795246500288208 0.42090816106369688 0 0.39571815329053278 0.30366769536745408 0 0.375 0.375 0 0.3125 0.3125 0 0.375 0.375 0 0.3125 0.3125 0 0.3464199946918517 0.23853139853342401 0 0.39571815329053278 0.30366769536745408 0 0.3125 0.3125 0 0.3464199946918517 0.23853139853342401 0 0.3125 0.3125 0 0.25 0.25 0 0.3125 0.3125 0 0.25 0.25 0 0.2364851416377855 0.35196809740109009 0 0.3125 0.3125 0 0.25 0.25 0 0.3125 0.3125 0 0.29795246500288208 0.42090816106369688 0 0.2364851416377855 0.35196809740109009 0 0.375 0.375 0 0.29795246500288208 0.42090816106369688 0 0.37209049300057639 0.44668163221273938 0 0.37209049300057639 0.44668163221273938 0 0.33333333333333331 0.5 0 0.41666666666666657 0.5 0 0.29795246500288208 0.42090816106369688 0 0.37209049300057639 0.44668163221273938 0 0.33333333333333331 0.5 0 0.29795246500288208 0.42090816106369688 0 0.33333333333333331 0.5 0 0.25 0.5 0 0.20086089844078761 0.43409067997123951 0 0.16586218125878449 0.51810759034366505 0 0.25 0.5 0 0.29795246500288208 0.42090816106369688 0 0.20086089844078761 0.43409067997123951 0 0.25 0.5 0 0.29795246500288208 0.42090816106369688 0 0.20086089844078761 0.43409067997123951 0 0.2364851416377855 0.35196809740109009 0 0.20086089844078761 0.43409067997123951 0 0.2364851416377855 0.35196809740109009 0 0.15692990060445861 0.37320329292197801 0 0.20086089844078761 0.43409067997123951 0 0.15692990060445861 0.37320329292197801 0 0.097900886736469753 0.44336704329953031 0 0.20086089844078761 0.43409067997123951 0 0.097900886736469753 0.44336704329953031 0 0.16586218125878449 0.51810759034366505 0 0.25 0.25 0 0.2364851416377855 0.35196809740109009 0 0.16831836545025089 0.3000279332226779 0 0.15549563120825899 0.22728761896597441 0 0.25 0.25 0 0.16831836545025089 0.3000279332226779 0 0.15692990060445861 0.37320329292197801 0 0.16831836545025089 0.3000279332226779 0 0.08278240412540934 0.34553853769174547 0 0.2364851416377855 0.35196809740109009 0 0.15692990060445861 0.37320329292197801 0 0.16831836545025089 0.3000279332226779 0 0.15549563120825899 0.22728761896597441 0 0.16831836545025089 0.3000279332226779 0 0.081883829897837504 0.25483250623203502 0 0.16831836545025089 0.3000279332226779 0 0.081883829897837504 0.25483250623203502 0 0.08278240412540934 0.34553853769174547 0 0.08278240412540934 0.34553853769174547 0 0 0.30000000000124832 0 0 0.40000000000166441 0 0.081883829897837504 0.25483250623203502 0 0.08278240412540934 0.34553853769174547 0 0 0.30000000000124832 0 0 0.20000000000083221 0 0.081883829897837504 0.25483250623203502 0 0 0.30000000000124832 0 0.15692990060445861 0.37320329292197801 0 0.08278240412540934 0.34553853769174547 0 0.097900886736469753 0.44336704329953031 0 0.08278240412540934 0.34553853769174547 0 0.097900886736469753 0.44336704329953031 0 0 0.40000000000166441 0 0.097900886736469753 0.44336704329953031 0 0 0.50000000000205869 0 0.080137041737376596 0.54953170839333398 0 0.097900886736469753 0.44336704329953031 0 0 0.40000000000166441 0 0 0.50000000000205869 0 0 0.50000000000205869 0 0.080137041737376596 0.54953170839333398 0 0 0.60000000000138687 0 0.097900886736469753 0.44336704329953031 0 0.080137041737376596 0.54953170839333398 0 0.16586218125878449 0.51810759034366505 0 0.080137041737376596 0.54953170839333398 0 0.092210585188327809 0.65716922645417974 0 0.14738305403764121 0.59655284915259177 0 0.080137041737376596 0.54953170839333398 0 0 0.60000000000138687 0 0.092210585188327809 0.65716922645417974 0 0 0.60000000000138687 0 0 0.7000000000006934 0 0.092210585188327809 0.65716922645417974 0 0 0.7000000000006934 0 0.066835488316682207 0.74715275320363728 0 0.092210585188327809 0.65716922645417974 0 0 0.7000000000006934 0 0.066835488316682207 0.74715275320363728 0 0 0.79999999999999982 0 0.066835488316682207 0.74715275320363728 0 0.092210585188327809 0.65716922645417974 0 0.15793426029988769 0.74398998676447015 0 0.092210585188327809 0.65716922645417974 0 0.18829732063548599 0.66099398255167208 0 0.14738305403764121 0.59655284915259177 0 0.092210585188327809 0.65716922645417974 0 0.15793426029988769 0.74398998676447015 0 0.18829732063548599 0.66099398255167208 0 0.15793426029988769 0.74398998676447015 0 0.24021577238288039 0.73972629863776906 0 0.18829732063548599 0.66099398255167208 0 0.24021577238288039 0.73972629863776906 0 0.18829732063548599 0.66099398255167208 0 0.27431461370666999 0.65461381660647655 0 0.18829732063548599 0.66099398255167208 0 0.22112359218785299 0.58198260946245006 0 0.27431461370666999 0.65461381660647655 0 0.22112359218785299 0.58198260946245006 0 0.16586218125878449 0.51810759034366505 0 0.25 0.5 0 0.080137041737376596 0.54953170839333398 0 0.16586218125878449 0.51810759034366505 0 0.14738305403764121 0.59655284915259177 0 0.18829732063548599 0.66099398255167208 0 0.22112359218785299 0.58198260946245006 0 0.14738305403764121 0.59655284915259177 0 0.22112359218785299 0.58198260946245006 0 0.16586218125878449 0.51810759034366505 0 0.14738305
[...]
<PointData Scalars="" Vectors="displacement," Tensors="">
<DataArray type="Float64" Name="displacement" NumberOfComponents="3" format="ascii">
2.551306605216852e-14 -8.0094351290194155e-15 0 -0.00025011657991778571 -0.00046985540191132619 0 3.2179174689478396e-14 -3.9434601417642767e-15 0 2.551306605216852e-14 -8.0094351290194155e-15 0 -0.00052265690634902755 -0.00076348154461014115 0 -0.00025011657991778571 -0.00046985540191132619 0 -0.00052265690634902755 -0.00076348154461014115 0 -0.00025011657991778571 -0.00046985540191132619 0 -0.00049115223444954129 -0.0010471224593358963 0 -0.00025011657991778571 -0.00046985540191132619 0 -0.00049115223444954129 -0.0010471224593358963 0 -0.00016842706545958748 -0.00053970263732853693 0 -0.00025011657991778571 -0.00046985540191132619 0 3.2179174689478396e-14 -3.9434601417642767e-15 0 -0.00016842706545958748 -0.00053970263732853693 0 -0.00077833711382891389 -0.0013140571801424344 0 -0.00049115223444954129 -0.0010471224593358963 0 -0.00070485399160796671 -0.0016821799629766823 0 -0.00052265690634902755 -0.00076348154461014115 0 -0.00077833711382891389 -0.0013140571801424344 0 -0.00049115223444954129 -0.0010471224593358963 0 -0.00049115223444954129 -0.0010471224593358963 0 -0.00045661283015970499 -0.0016727018394469162 0 -0.00070485399160796671 -0.0016821799629766823 0 -0.00049115223444954129 -0.0010471224593358963 0 -0.00045661283015970499 -0.0016727018394469162 0 -0.0001862380835162855 -0.0011346975113907325 0 -0.00049115223444954129 -0.0010471224593358963 0 -0.0001862380835162855 -0.0011346975113907325 0 -0.00016842706545958748 -0.00053970263732853693 0 -0.0001862380835162855 -0.0011346975113907325 0 1.12393875367024e-05 -0.00049413288424361105 0 0.00017684759752899671 -0.00093813971235997867 0 -0.00045661283015970499 -0.0016727018394469162 0 -0.0001862380835162855 -0.0011346975113907325 0 -0.00015477979584253322 -0.0019174092423179662 0 -0.0001862380835162855 -0.0011346975113907325 0 0.00017684759752899671 -0.00093813971235997867 0 -0.00015477979584253322 -0.0019174092423179662 0 3.2179174689478396e-14 -3.9434601417642767e-15 0 -0.00016842706545958748 -0.00053970263732853693 0 2.1980301693341753e-14 -9.8588671948451889e-15 0 -0.0001862380835162855 -0.0011346975113907325 0 -0.00016842706545958748 -0.00053970263732853693 0 1.12393875367024e-05 -0.00049413288424361105 0 -0.00016842706545958748 -0.00053970263732853693 0 1.12393875367024e-05 -0.00049413288424361105 0 2.1980301693341753e-14 -9.8588671948451889e-15 0 1.12393875367024e-05 -0.00049413288424361105 0 2.1980301693341753e-14 -9.8588671948451889e-15 0 4.4395531088176066e-14 -6.0092989612181569e-15 0 1.12393875367024e-05 -0.00049413288424361105 0 4.4395531088176066e-14 -6.0092989612181569e-15 0 0.0001077385067591183 -0.00043942132583363715 0 4.4395531088176066e-14 -6.0092989612181569e-15 0 0.0001077385067591183 -0.00043942132583363715 0 1.4125040113249776e-14 -2.0505732528652842e-14 0 1.12393875367024e-05 -0.00049413288424361105 0 0.0001077385067591183 -0.00043942132583363715 0 0.00017684759752899671 -0.00093813971235997867 0 0.00017684759752899671 -0.00093813971235997867 0 0.00050923713377962112 -0.0012801205031982149 0 -0.00015477979584253322 -0.0019174092423179662 0 0.00017684759752899671 -0.00093813971235997867 0 0.00050923713377962112 -0.0012801205031982149 0 0.00037259180887602261 -0.00092321765629303928 0 0.0001077385067591183 -0.00043942132583363715 0 0.00017684759752899671 -0.00093813971235997867 0 0.00037259180887602261 -0.00092321765629303928 0 0.00050923713377962112 -0.0012801205031982149 0 0.00037259180887602261 -0.00092321765629303928 0 0.00081175687953500631 -0.0014599866337096439 0 0.00081175687953500631 -0.0014599866337096439 0 0.00083162508375191025 -0.0015091599697002328 0 0.001520758919030763 -0.0020906416418657262 0 0.00037259180887602261 -0.00092321765629303928 0 0.00081175687953500631 -0.0014599866337096439 0 0.00083162508375191025 -0.0015091599697002328 0 0.00037259180887602261 -0.00092321765629303928 0 0.00083162508375191025 -0.0015091599697002328 0 0.0004367084405813261 -0.00097711994437815666 0 0.00037259180887602261 -0.00092321765629303928 0 0.0004367084405813261 -0.00097711994437815666 0 0.00016360703528014048 -0.00049184419790784827 0 0.0004367084405813261 -0.00097711994437815666 0 0.00016360703528014048 -0.00049184419790784827 0 0.00022588037828468962 -0.00059104578603665298 0 0.00016360703528014048 -0.00049184419790784827 0 5.8778123427499773e-14 -2.1942950928499627e-14 0 0.00022588037828468962 -0.00059104578603665298 0 0.00016360703528014048 -0.00049184419790784827 0 5.8778123427499773e-14 -2.1942950928499627e-14 0 1.4125040113249776e-14 -2.0505732528652842e-14 0 0.0001077385067591183 -0.00043942132583363715 0 0.00016360703528014048 -0.00049184419790784827 0 1.4125040113249776e-14 -2.0505732528652842e-14 0 0.0001077385067591183 -0.00043942132583363715 0 0.00037259180887602261 -0.00092321765629303928 0 0.00016360703528014048 -0.00049184419790784827 0 -0.00044991701263164896 -0.0066837939815380144 0 -0.00068565014839724664 -0.0052842931341969841 0 6.872757239615411e-06 -0.0058243416062563761 0 0.0036197546821041299 -0.0026141222869987438 0 0.0024289610860153436 -0.0024558088185209735 0 0.002598291286246121 -0.0020003516993992317 0 0.0011323670308967149 -0.00467254642138563 0 0.0010759692373786189 -0.0036428991146312418 0 -0.00044991701263164896 -0.0066837939815380144 0 6.872757239615411e-06 -0.0058243416062563761 0 0.00042408610010571945 -0.006771231488665215 0 0.0036197546821041299 -0.0026141222869987438 0 0.0044726172970233451 -0.0032887176851478677 0 0.0032198248254823748 -0.0031276567467066426 0 -0.00044991701263164896 -0.0066837939815380144 0 0.00042408610010571945 -0.006771231488665215 0 -0.00023892361346043722 -0.0080002585957639795 0 0.0011323670308967149 -0.00467254642138563 0 0.0039382159546224264 -0.0054640423397722638 0 0.0036197546821041299 -0.0026141222869987438 0 0.0024289610860153436 -0.0024558088185209735 0 0.0032198248254823748 -0.0031276567467066426 0 0.0024289610860153436 -0.0024558088185209735 0 0.001520758919030763 -0.0020906416418657262 0 0.0022994219045354087 -0.002827079905048044 0 0.0024289610860153436 -0.0024558088185209735 0 0.001520758919030763 -0.0020906416418657262 0 0.0014503749378464953 -0.001789086752933316 0 0.00050923713377962112 -0.0012801205031982149 0 0.00081175687953500631 -0.0014599866337096439 0 0.0014503749378464953 -0.001789086752933316 0 0.00081175687953500631 -0.0014599866337096439 0 0.001520758919030763 -0.0020906416418657262 0 0.0014503749378464953 -0.001789086752933316 0 0.0024289610860153436 -0.0024558088185209735 0 0.0014503749378464953 -0.001789086752933316 0 0.002598291286246121 -0.0020003516993992317 0 -0.00068565014839724664 -0.0052842931341969841 0 -0.00077144847998395394 -0.0037404167159268611 0 -3.1011688228589629e-05 -0.004632785461911741 0 0.0014503749378464953 -0.001789086752933316 0 0.002598291286246121 -0.0020003516993992317 0 0.0013127817634319297 -0.0016561864725331381 0 0.0010759692373786189 -0.0036428991146312418 0 0.00024956356189146452 -0.0026959511476430274 0 0.00050923713377962112 -0.0012801205031982149 0 0.0014503749378464953 -0.001789086752933316 0 0.0013127817634319297 -0.0016561864725331381 0 0.00050923713377962112 -0.0012801205031982149 0 0.0013127817634319297 -0.0016561864725331381 0 -0.00015477979584253322 -0.0019174092423179662 0 -0.00077144847998395394 -0.0037404167159268611 0 -0.00015477979584253322 -0.0019174092423179662 0 -0.00053979411885703458 -0.0031781747236165701 0 0.00024956356189146452 -0.0026959511476430274 0 -0.00013460597027371412 -0.0019337061968771373 0 -0.00077144847998395394 -0.0037404167159268611 0 -3.1011688228589629e-05 -0.004632785461911741 0 -0.00053979411885703458 -0.0031781747236165701 0 -0.00068565014839724664 -0.0052842931341969841 0 -3.1011688228589629e-05 -0.004632785461911741 0 6.872757239615411e-06 -0.0058243416062563761 0 6.872757239615411e-06 -0.0058243416062563761 0 0.00090951300230782735 -0.0057047624641719244 0 0.00042408610010571945 -0.006771231488665215 0 -3.1011688228589629e-05 -0.004632785461911741 0 6.872757239615411e-06 -0.0058243416062563761 0 0.00090951300230782735 -0.0057047624641719244 0 -3.1011688228589629e-05 -0.004632785461911741 0 0.00090951300230782735 -0.0057047624641719244 0 0.0013693613898426199 -0.0047380597384205411 0 0.00024367632949560784 -0.0036004915457508333 0 0.0014654422377138249 -0.0039673837121212731 0 0.0013693613898426199 -0.0047380597384205411 0 -3.1011688228589629e-05 -0.004632785461911741 0 0.00024367632949560784 -0.0036004915457508333 0 0.0013693613898426199 -0.0047380597384205411 0 -3.1011688228589629e-05 -0.004632785461911741 0 0.00024367632949560784 -0.0036004915457508333 0 -0.00053979411885703458 -0.0031781747236165701 0 0.00024367632949560784 -0.0036004915457508333 0 -0.00053979411885703458 -0.0031781747236165701 0 -0.0003394549507168993 -0.0028055300543302231 0 0.00024367632949560784 -0.0036004915457508333 0 -0.0003394549507168993 -0.0028055300543302231 0 0.00026190904675756706 -0.0028064713374543254 0 0.00024367632949560784 -0.0036004915457508333 0 0.00026190904675756706 -0.0028064713374543254 0 0.0014654422377138249 -0.0039673837121212731 0 -0.00015477979584253322 -0.0019174092423179662 0 -0.00053979411885703458 -0.0031781747236165701 0 -0.00057894488561211117 -0.0023531781077839589 0 -0.00045661283015970499 -0.0016727018394469162 0 -0.00015477979584253322 -0.0019174092423179662 0 -0.00057894488561211117 -0.0023531781077839589 0 -0.0003394549507168993 -0.0028055300543302231 0 -0.00057894488561211117 -0.0023531781077839589 0 -0.00055198528549844266 -0.0021859104640965217 0 -0.00053979411885703458 -0.0031781747236165701 0 -0.0003394549507168993 -0.0028055300543302231 0 -0.00057894488561211117 -0.0023531781077839589 0 -0.00045661283015970499 -0.0016727018394469162 0 -0.00057894488561211117 -0.0023531781077839589 0 -0.00070485399160796671 -0.0016821799629766823 0 -0.00057894488561211117 -0.0023531781077839589 0 -0.00070485399160796671 -0.0016821799629766823 0 -0.00055198528549844266 -0.0021859104640965217 0 -0.00055198528549844266 -0.0021859104640965217 0 -0.00077805269345708635 -0.0016414076790548333 0 -0.00024652152733790011 -0.0018076931186694167 0 -0.00070485399160796671 -0.0016821799629766823 0 -0.00055198528549844266 -0.0021859104640965217 0 -0.00077805269345708635 -0.0016414076790548333 0 -0.00077833711382891389 -0.0013140571801424344 0 -0.00070485399160796671 -0.0016821799629766823 0 -0.00077805269345708635 -0.0016414076790548333 0 -0.0003394549507168993 -0.0028055300543302231 0 -0.00055198528549844266 -0.0021859104640965217 0 0.00026190904675756706 -0.0028064713374543254 0 -0.00055198528549844266 -0.0021859104640965217 0 0.00026190904675756706 -0.0028064713374543254 0 -0.00024652152733790011 -0.0018076931186694167 0 0.00026190904675756706 -0.0028064713374543254 0 0.0008686494431904123 -0.0020729294544487953 0 0.0017575619127246187 -0.0033021287473025502 0 0.00026190904675756706 -0.0028064713374543254 0 -0.00024652152733790011 -0.0018076931186694167 0 0.0008686494431904123 -0.0020729294544487953 0 0.0008686494431904123 -0.0020729294544487953 0 0.0017575619127246187 -0.0033021287473025502 0 0.0023868659693841452 -0.0025509909853861398 0 0.00026190904675756706 -0.0028064713374543254 0 0.0017575619127246187 -0.0033021287473025502 0 0.0014654422377138249 -0.0039673837121212731 0 0.0017575619127246187 -0.0033021287473025502 0 0.0035641775148558459 -0.0042761487278790179 0 0.0027489624744186205 -0.0044537405442370837 0 0.0017575619127246187 -0.0033021287473025502 0 0.0023868659693841452 -0.0025509909853861398 0 0.0035641775148558459 -0.0042761487278790179 0 0.0023868659693841452 -0.0025509909853861398 0 0.0040006331774676092 -0.003269259860115583 0 0.0035641775148558459 -0.0042761487278790179 0 0.0040006331774676092 -0.003269259860115583 0 0.0049468791021397189 -0.0046607006093600661 0 0.0035641775148558459 -0.0042761487278790179 0 0.0040006331774676092 -0.003269259860115583 0 0.0049468791021397189 -0.0046607006093600661 0 0.0055892711872151842 -0.0040774150586699561 0 0.0049468791021397189 -0.0046607006093600661 0 0.0035641775148558459 -0.0042761487278790179 0 0.0051919293853099546 -0.0059383833654830468 0 0.0035641775148558459 -0.0042761487278790179 0 0.0039891670367932942 -0.0055655256716200096 0 0.0027489624744186205 -0.0044537405442370837 0 0.0035641775148558459 -0.0042761487278790179 0 0.0051919293853099546 -0.0059383833654830468 0 0.0039891670367932942 -0.0055655256716200096 0 0.0051919293853099546 -0.0059383833654830468 0 0.0054534542672040991 -0.0070097950155851695 0 0.0039891670367932942 -0.0055655256716200096 0 0.0054534542672040991 -0.0070097950155851695 0 0.0039891670367932942 -0.0055655256716200096 0 0.00428586705299788 -0.0066050199456696764 0 0.0039891670367932942 -0.0055655256716200096 0 0.0028123954773985912 -0.0051994591396336536 0 0.00428586705299788 -0.0066050199456696764 0 0.0028123954773985912 -0.0051994591396336536 0 0.0014654422377138249 -0.0039673837121212731 0 0.0013693613898426199 -0.0047380597384205411 0 0.0017575619127246187 -0.0033021287473025502 0 0.0014654422377138249 -0.0039673837121212731 0 0.0027489624744186205 -0.0044537405442370837 0 0.0039891670367932942 -0.0055655256716200096 0 0.0028123954773985912 -0.0051994591396336536 0 0.0027489624744186205 -0.0044537405442370837 0 0.0028123954773985912 -0.0051994591396336536 0 0.0014654422377138249 -0.0039673837121212731 0 0.0027489624744186205 -0.0044537405442370837 0 0.0091502271145347865 -0.0074186388424715231 0 0.0078367260832767783 -0.0063346627595278846 0 0.0078445381679634486 -0.007400656894086915 0 0.0089048404108217176 -0.0058076205719909887 0 0.0071815309413795058 -0.0049230379351641361 0 0.0078367260832767783 -0.0063346627595278846 0 0.0091502271145347865 -0.0074186388424715231 0 0.0089048404108217176 -0.0058076205719909887 0 0.0078367260832767783 -0.0063346627595278846 0 0.0071815309413795058 -0.0049230379351641361 0 0.0078367260832767783 -0.0063346627595278846 0 0.0064931948059313693 -0.0058106498794668589 0 0.0078367260832767783 -0.0063346627595278846 0 0.0064931948059313693 -0.0058106498794668589 0 0.0078445381679634486 -0.007400656894086915 0 0.0071815309413795058 -0.0049230379351641361 0 0.0064931948059313693 -0.0058106498794668589 0 0.0055892711872151842 -0.0040774150586699561 0 0.0049468791021397189 -0.0046607006093600661 0 0.0064931948059313693 -0.0058106498794668589 0 0.0055892711872151842 -0.0040774150586699561 0 0.0049468791021397189 -0.0046607006093600661 0 0.0051919293853099546 -0.0059383833654830468 0 0.0064931948059313693 -0.0058106498794668589 0 0.0051919293853099546 -0.0059383833654830468 0 0.0064931948059313693 -0.0058106498794668589 0 0.0066609326162714319 -0.0072873009966437719 0 0.0054534542672040991 -0.0070097950155851695 0 0.0066609326162714319 -0.0072873009966437719 0 0.0068434318407565699 -0.0084698798897410235 0 0.0051919293853099546 -0.0059383833654830468 0 0.0054534542672040991 -0.0070097950155851695 0 0.0066609326162714319 -0.0072873009966437719 0 0.0066609326162714319 -0.0072873009966437719 0 0.0080301678534002077 -0.0087718607073778414 0 0.0068434318407565699 -0.0084698798897410235 0 0.0064931948059313693 -0.0058106498794668589 0 0.0066609326162714319 -0.0072873009966437719 0 0.0078445381679634486 -0.007400656894086915 0 0.0066609326162714319 -0.0072873009966437719 0 0.0078445381679634486 -0.007400656894086915 0 0.0080301678534002077 -0.0087718607073778414 0 0.0078445381679634486 -0.007400656894086915 0 0.0093106152656457827 -0.0088785164930831363 0 0.0080301678534002077 -0.0087718607073778414 0 0.0091502271145347865 -0.0074186388424715231 0 0.0078445381679634486 -0.007400656894086915 0 0.0093106152656457827 -0.0088785164930831363 0 0.0094137131756941508 -0.010213978340263703 0 0.0081796579356706693 -0.010099045139564555 0 0.0094562473198260208 -0.011377090058211645 0 0.0093106152656457827 -0.0088785164930831363 0 0.0094137131756941508 -0.010213978340263703 0 0.0080301678534002077 -0.0087718607073778414 0 0.0094137131756941508 -0.010213978340263703 0 0.0080301678534002077 -0.0087718607073778414 0 0.0081796579356706693 -0.010099045139564555 0 0.0080301678534002077 -0.0087718607073778414 0 0.0081796579356706693 -0.010099045139564555 0 0.0068434318407565699 -0.0084698798897410235 0 0.0081796579356706693 -0.010099045139564555 0 0.0068434318407565699 -0.0084698798897410235 0 0.0068308526539577049 -0.0093067018220566525 0 0.0054534542672040991 -0.0070097950155851695 0 0.0068434318407565699 -0.0084698798897410235 0 0.0056322420588563018 -0.0079716997938036084 0 0.0068434318407565699 -0.0084698798897410235 0 0.0068308526539577049 -0.0093067018220566525 0 0.0056322420588563018 -0.0079716997938036084 0 0.0068308526539577049 -0.0093067018220566525 0 0.0070155415528482222 -0.010007604169321224 0 0.0078914628920628178 -0.010634112204520357 0 0.0068308526539577049 -0.0093067018220566525 0 0.0070155415528482222 -0.010007604169321224 0 0.0058115459952817168 -0.0087726240755760833 0 0.0070155415528482222 -0.010007604169321224 0 0.0078914628920628178 -0.010634112204520357 0 0.0078438261059080548 -0.01095909459399262 0 0.0081796579356706693 -0.010099045139564555 0 0.0068308526539577049 -0.0093067018220566525 0 0.0078914628920628178 -0.010634112204520357 0 0.0081796579356706693 -0.010099045139564555 0 0.0078914628920628178 -0.010634112204520357 0 0.0087297410799383503 -0.011353626490107557 0 0.0078914628920628178 -0.010634112204520357 0 0.0087297410799383503 -0.011353626490107557 0 0.0086238486231452176 -0.011841023762315746 0 0.0087297410799383503 -0.011353626490107557 0 0.0093412997998177597 -0.012309894534708333 0 0.0086238486231452176 -0.011841023762315746 0 0.0087297410799383503 -0.011353626490107557 0 0.0094562473198260208 -0.011377090058211645 0 0.0093412997998177597 -0.012309894534708333 0 0.0081796579356706693 -0.010099045139564555 0 0.0087297410799383503 -0.011353626490107557 0 0.0094562473198260208 -0.011377090058211645 0 0.0031314859699547891 -0.0061993994670020191 0 0.0045298778831786325 -0.0074910952447718327 0 0.00349933376855632 -0.0070583787373610166 0 0.0016795990079596177 -0.0055125352822098343 0 0.00089463531091854434 -0.0074413874721411056 0 0.0021227294431489475 -0.0057047624641157679 0 0.0031314859699547891 -0.0061993994670020191 0 0.00349933376855632 -0.0070583787373610166 0 0.0028123954773985912 -0.0051994591396336536 0 0.0013693613898426199 -0.0047380597384205411 0 0.0031314859699547891 -0.0061993994670020191 0 0.0021227294431489475 -0.0057047624641157679 0 0.0013693613898426199 -0.0047380597384205411 0 0.0031314859699547891 -0.0061993994670020191 0 0.0016795990079596177 -0.0055125352822098343 0 0.0013005141708637125 -0.004823706081363283 0 0.0031314859699547891 -0.0061993994670020191 0 0.00428586705299788 -0.0066050199456696764 0 0.0045298778831786325 -0.0074910952447718327 0 0.0028123954773985912 -0.0051994591396336536 0 0.0031314859699547891 -0.0061993994670020191 0 0.00428586705299788 -0.0066050199456696764 0 0.0054534542672040991 -0.0070097950155851695 0 0.00428586705299788 -0.0066050199456696764 0 0.0056322420588563018 -0.0079716997938036084 0 0.0056322420588563018 -0.0079716997938036084 0 0.0045298778831786325 -0.0074910952447718327 0 0.0058115459952817168 -0.0087726240755760833 0 0.00428586705299788 -0.0066050199456696764 0 0.0056322420588563018 -0.0079716997938036084 0 0.0045298778831786325 -0.0074910952447718327 0 0.0045298778831786325 -0.0074910952447718327 0 0.0047847964876111277 -0.008242771957197836 0 0.0058115459952817168 -0.0087726240755760833 0 0.0068308526539577049 -0.0093067018220566525 0 0.0056322420588563018 -0.0079716997938036084 0 0.0058115459952817168 -0.0087726240755760833 0 0.0070155415528482222 -0.010007604169321224 0 0.0058115459952817168 -0.0087726240755760833 0 0.0061002730936023817 -0.0094601071488852485 0 0.0047847964876111277 -0.008242771957197836 0 0.0061002730936023817 -0.0094601071488852485 0 0.0050519183153561985 -0.0089986113920621346 0 0.0047847964876111277 -0.008242771957