<?xml version="1.0"?>
<VTKFile type="UnstructuredGrid" version="0.1" byte_order="LittleEndian">
<UnstructuredGrid>
<Piece NumberOfPoints="902" NumberOfCells="306">
<Points>
<DataArray type="Float64" NumberOfComponents="3" format="ascii">
0 0 0 0.073205080756622284 0.073205080756783406 0 0.099999999999814668 0 0 0 0 0 0 0.10000000000041601 0 0.073205080756622284 0.073205080756783406 0 0 0.10000000000041601 0 0.073205080756622284 0.073205080756783406 0 0.091402515083494409 0.15708578875639231 0 0.073205080756622284 0.073205080756783406 0 0.091402515083494409 0.15708578875639231 0 0.15027753147047779 0.085031708671012771 0 0.073205080756622284 0.073205080756783406 0 0.099999999999814668 0 0 0.15027753147047779 0.085031708671012771 0 0 0.20000000000083221 0 0.091402515083494409 0.15708578875639231 0 0.081883829897837504 0.25483250623203502 0 0 0.10000000000041601 0 0 0.20000000000083221 0 0.091402515083494409 0.15708578875639231 0 0.091402515083494409 0.15708578875639231 0 0.15549563120825899 0.22728761896597441 0 0.081883829897837504 0.25483250623203502 0 0.091402515083494409 0.15708578875639231 0 0.15549563120825899 0.22728761896597441 0 0.19770415439635231 0.16188916215834151 0 0.091402515083494409 0.15708578875639231 0 0.19770415439635231 0.16188916215834151 0 0.15027753147047779 0.085031708671012771 0 0.19770415439635231 0.16188916215834151 0 0.24865572115759171 0.085435742792086475 0 0.29474128210898343 0.16200542811217281 0 0.15549563120825899 0.22728761896597441 0 0.19770415439635231 0.16188916215834151 0 0.25 0.25 0 0.19770415439635231 0.16188916215834151 0 0.29474128210898343 0.16200542811217281 0 0.25 0.25 0 0.099999999999814668 0 0 0.15027753147047779 0.085031708671012771 0 0.19999999999955789 0 0 0.19770415439635231 0.16188916215834151 0 0.15027753147047779 0.085031708671012771 0 0.24865572115759171 0.085435742792086475 0 0.15027753147047779 0.085031708671012771 0 0.24865572115759171 0.085435742792086475 0 0.19999999999955789 0 0 0.24865572115759171 0.085435742792086475 0 0.19999999999955789 0 0 0.29999999999926641 0 0 0.24865572115759171 0.085435742792086475 0 0.29999999999926641 0 0 0.34895628004087342 0.081718455239699395 0 0.29999999999926641 0 0 0.34895628004087342 0.081718455239699395 0 0.3999999999989749 0 0 0.24865572115759171 0.085435742792086475 0 0.34895628004087342 0.081718455239699395 0 0.29474128210898343 0.16200542811217281 0 0.29474128210898343 0.16200542811217281 0 0.3464199946918517 0.23853139853342401 0 0.25 0.25 0 0.29474128210898343 0.16200542811217281 0 0.3464199946918517 0.23853139853342401 0 0.40494618262236548 0.1650662896072117 0 0.34895628004087342 0.081718455239699395 0 0.29474128210898343 0.16200542811217281 0 0.40494618262236548 0.1650662896072117 0 0.3464199946918517 0.23853139853342401 0 0.40494618262236548 0.1650662896072117 0 0.42061435012922882 0.23794897811370561 0 0.42061435012922882 0.23794897811370561 0 0.49638486706945439 0.2121184447907791 0 0.48197160777613701 0.29296902118871587 0 0.40494618262236548 0.1650662896072117 0 0.42061435012922882 0.23794897811370561 0 0.49638486706945439 0.2121184447907791 0 0.40494618262236548 0.1650662896072117 0 0.49638486706945439 0.2121184447907791 0 0.49677298727352631 0.1419426259588793 0 0.40494618262236548 0.1650662896072117 0 0.49677298727352631 0.1419426259588793 0 0.44949959448178062 0.082308188761819806 0 0.49677298727352631 0.1419426259588793 0 0.44949959448178062 0.082308188761819806 0 0.54912436800118414 0.07923269986872096 0 0.44949959448178062 0.082308188761819806 0 0.49999999999869432 0 0 0.54912436800118414 0.07923269986872096 0 0.44949959448178062 0.082308188761819806 0 0.49999999999869432 0 0 0.3999999999989749 0 0 0.34895628004087342 0.081718455239699395 0 0.44949959448178062 0.082308188761819806 0 0.3999999999989749 0 0 0.34895628004087342 0.081718455239699395 0 0.40494618262236548 0.1650662896072117 0 0.44949959448178062 0.082308188761819806 0 0.4375 0.4375 0 0.375 0.375 0 0.37209049300057639 0.44668163221273938 0 0.4375 0.4375 0 0.45958432544769412 0.36572680929244022 0 0.375 0.375 0 0.4375 0.4375 0 0.375 0.375 0 0.4375 0.4375 0 0.37209049300057639 0.44668163221273938 0 0.41666666666666657 0.5 0 0.4375 0.4375 0 0.5 0.5 0 0.51443730641548846 0.4230626935845116 0 0.4375 0.4375 0 0.41666666666666657 0.5 0 0.5 0.5 0 0.4375 0.4375 0 0.5 0.5 0 0.4375 0.4375 0 0.45958432544769412 0.36572680929244022 0 0.51443730641548846 0.4230626935845116 0 0.45958432544769412 0.36572680929244022 0 0.48197160777613701 0.29296902118871587 0 0.53795066522196777 0.35232980433802918 0 0.45958432544769412 0.36572680929244022 0 0.48197160777613701 0.29296902118871587 0 0.39571815329053278 0.30366769536745408 0 0.3464199946918517 0.23853139853342401 0 0.42061435012922882 0.23794897811370561 0 0.39571815329053278 0.30366769536745408 0 0.42061435012922882 0.23794897811370561 0 0.48197160777613701 0.29296902118871587 0 0.39571815329053278 0.30366769536745408 0 0.45958432544769412 0.36572680929244022 0 0.39571815329053278 0.30366769536745408 0 0.375 0.375 0 0.375 0.375 0 0.3125 0.3125 0 0.29795246500288208 0.42090816106369688 0 0.39571815329053278 0.30366769536745408 0 0.375 0.375 0 0.3125 0.3125 0 0.375 0.375 0 0.3125 0.3125 0 0.3464199946918517 0.23853139853342401 0 0.39571815329053278 0.30366769536745408 0 0.3125 0.3125 0 0.3464199946918517 0.23853139853342401 0 0.3125 0.3125 0 0.25 0.25 0 0.3125 0.3125 0 0.25 0.25 0 0.2364851416377855 0.35196809740109009 0 0.3125 0.3125 0 0.25 0.25 0 0.3125 0.3125 0 0.29795246500288208 0.42090816106369688 0 0.2364851416377855 0.35196809740109009 0 0.375 0.375 0 0.29795246500288208 0.42090816106369688 0 0.37209049300057639 0.44668163221273938 0 0.37209049300057639 0.44668163221273938 0 0.33333333333333331 0.5 0 0.41666666666666657 0.5 0 0.29795246500288208 0.42090816106369688 0 0.37209049300057639 0.44668163221273938 0 0.33333333333333331 0.5 0 0.29795246500288208 0.42090816106369688 0 0.33333333333333331 0.5 0 0.25 0.5 0 0.20086089844078761 0.43409067997123951 0 0.16586218125878449 0.51810759034366505 0 0.25 0.5 0 0.29795246500288208 0.42090816106369688 0 0.20086089844078761 0.43409067997123951 0 0.25 0.5 0 0.29795246500288208 0.42090816106369688 0 0.20086089844078761 0.43409067997123951 0 0.2364851416377855 0.35196809740109009 0 0.20086089844078761 0.43409067997123951 0 0.2364851416377855 0.35196809740109009 0 0.15692990060445861 0.37320329292197801 0 0.20086089844078761 0.43409067997123951 0 0.15692990060445861 0.37320329292197801 0 0.097900886736469753 0.44336704329953031 0 0.20086089844078761 0.43409067997123951 0 0.097900886736469753 0.44336704329953031 0 0.16586218125878449 0.51810759034366505 0 0.25 0.25 0 0.2364851416377855 0.35196809740109009 0 0.16831836545025089 0.3000279332226779 0 0.15549563120825899 0.22728761896597441 0 0.25 0.25 0 0.16831836545025089 0.3000279332226779 0 0.15692990060445861 0.37320329292197801 0 0.16831836545025089 0.3000279332226779 0 0.08278240412540934 0.34553853769174547 0 0.2364851416377855 0.35196809740109009 0 0.15692990060445861 0.37320329292197801 0 0.16831836545025089 0.3000279332226779 0 0.15549563120825899 0.22728761896597441 0 0.16831836545025089 0.3000279332226779 0 0.081883829897837504 0.25483250623203502 0 0.16831836545025089 0.3000279332226779 0 0.081883829897837504 0.25483250623203502 0 0.08278240412540934 0.34553853769174547 0 0.08278240412540934 0.34553853769174547 0 0 0.30000000000124832 0 0 0.40000000000166441 0 0.081883829897837504 0.25483250623203502 0 0.08278240412540934 0.34553853769174547 0 0 0.30000000000124832 0 0 0.20000000000083221 0 0.081883829897837504 0.25483250623203502 0 0 0.30000000000124832 0 0.15692990060445861 0.37320329292197801 0 0.08278240412540934 0.34553853769174547 0 0.097900886736469753 0.44336704329953031 0 0.08278240412540934 0.34553853769174547 0 0.097900886736469753 0.44336704329953031 0 0 0.40000000000166441 0 0.097900886736469753 0.44336704329953031 0 0 0.50000000000205869 0 0.080137041737376596 0.54953170839333398 0 0.097900886736469753 0.44336704329953031 0 0 0.40000000000166441 0 0 0.50000000000205869 0 0 0.50000000000205869 0 0.080137041737376596 0.54953170839333398 0 0 0.60000000000138687 0 0.097900886736469753 0.44336704329953031 0 0.080137041737376596 0.54953170839333398 0 0.16586218125878449 0.51810759034366505 0 0.080137041737376596 0.54953170839333398 0 0.092210585188327809 0.65716922645417974 0 0.14738305403764121 0.59655284915259177 0 0.080137041737376596 0.54953170839333398 0 0 0.60000000000138687 0 0.092210585188327809 0.65716922645417974 0 0 0.60000000000138687 0 0 0.7000000000006934 0 0.092210585188327809 0.65716922645417974 0 0 0.7000000000006934 0 0.066835488316682207 0.74715275320363728 0 0.092210585188327809 0.65716922645417974 0 0 0.7000000000006934 0 0.066835488316682207 0.74715275320363728 0 0 0.79999999999999982 0 0.066835488316682207 0.74715275320363728 0 0.092210585188327809 0.65716922645417974 0 0.15793426029988769 0.74398998676447015 0 0.092210585188327809 0.65716922645417974 0 0.18829732063548599 0.66099398255167208 0 0.14738305403764121 0.59655284915259177 0 0.092210585188327809 0.65716922645417974 0 0.15793426029988769 0.74398998676447015 0 0.18829732063548599 0.66099398255167208 0 0.15793426029988769 0.74398998676447015 0 0.24021577238288039 0.73972629863776906 0 0.18829732063548599 0.66099398255167208 0 0.24021577238288039 0.73972629863776906 0 0.18829732063548599 0.66099398255167208 0 0.27431461370666999 0.65461381660647655 0 0.18829732063548599 0.66099398255167208 0 0.22112359218785299 0.58198260946245006 0 0.27431461370666999 0.65461381660647655 0 0.22112359218785299 0.58198260946245006 0 0.16586218125878449 0.51810759034366505 0 0.25 0.5 0 0.080137041737376596 0.54953170839333398 0 0.16586218125878449 0.51810759034366505 0 0.14738305403764121 0.59655284915259177 0 0.18829732063548599 0.66099398255167208 0 0.22112359218785299 0.58198260946245006 0 0.14738305403764121 0.59655284915259177 0 0.22112359218785299 0.58198260946245006 0 0.16586218125878449 0.51810759034366505 0 0.14738305
[...]
<PointData Scalars="" Vectors="displacement," Tensors="">
<DataArray type="Float64" Name="displacement" NumberOfComponents="3" format="ascii">
-8.9590878118994688e-15 5.5727991665754928e-15 0 -0.00025011657995152093 -0.000469855401898481 0 -2.2929791745895933e-15 8.6319840164605921e-15 0 -8.9590878118994688e-15 5.5727991665754928e-15 0 -0.00052265690638249307 -0.00076348154459655892 0 -0.00025011657995152093 -0.000469855401898481 0 -0.00052265690638249307 -0.00076348154459655892 0 -0.00025011657995152093 -0.000469855401898481 0 -0.00049115223448243208 -0.0010471224593232343 0 -0.00025011657995152093 -0.000469855401898481 0 -0.00049115223448243208 -0.0010471224593232343 0 -0.0001684270654932036 -0.00053970263731646759 0 -0.00025011657995152093 -0.000469855401898481 0 -2.2929791745895933e-15 8.6319840164605921e-15 0 -0.0001684270654932036 -0.00053970263731646759 0 -0.00077833711386137252 -0.0013140571801288521 0 -0.00049115223448243208 -0.0010471224593232343 0 -0.00070485399163987337 -0.0016821799629639245 0 -0.00052265690638249307 -0.00076348154459655892 0 -0.00077833711386137252 -0.0013140571801288521 0 -0.00049115223448243208 -0.0010471224593232343 0 -0.00049115223448243208 -0.0010471224593232343 0 -0.00045661283019188899 -0.0016727018394348994 0 -0.00070485399163987337 -0.0016821799629639245 0 -0.00049115223448243208 -0.0010471224593232343 0 -0.00045661283019188899 -0.0016727018394348994 0 -0.00018623808354912782 -0.0011346975113791407 0 -0.00049115223448243208 -0.0010471224593232343 0 -0.00018623808354912782 -0.0011346975113791407 0 -0.0001684270654932036 -0.00053970263731646759 0 -0.00018623808354912782 -0.0011346975113791407 0 1.1239387503090344e-05 -0.00049413288423253202 0 0.00017684759749615558 -0.0009381397123493639 0 -0.00045661283019188899 -0.0016727018394348994 0 -0.00018623808354912782 -0.0011346975113791407 0 -0.00015477979588707181 -0.001917409242290417 0 -0.00018623808354912782 -0.0011346975113791407 0 0.00017684759749615558 -0.0009381397123493639 0 -0.00015477979588707181 -0.001917409242290417 0 -2.2929791745895933e-15 8.6319840164605921e-15 0 -0.0001684270654932036 -0.00053970263731646759 0 -1.2491852170726236e-14 1.7097868260096405e-15 0 -0.00018623808354912782 -0.0011346975113791407 0 -0.0001684270654932036 -0.00053970263731646759 0 1.1239387503090344e-05 -0.00049413288423253202 0 -0.0001684270654932036 -0.00053970263731646759 0 1.1239387503090344e-05 -0.00049413288423253202 0 -1.2491852170726236e-14 1.7097868260096405e-15 0 1.1239387503090344e-05 -0.00049413288423253202 0 -1.2491852170726236e-14 1.7097868260096405e-15 0 9.9233772241080764e-15 4.5527817627011302e-15 0 1.1239387503090344e-05 -0.00049413288423253202 0 9.9233772241080764e-15 4.5527817627011302e-15 0 0.00010773850672546884 -0.00043942132582356795 0 9.9233772241080764e-15 4.5527817627011302e-15 0 0.00010773850672546884 -0.00043942132582356795 0 -2.0347113750818213e-14 -1.0950441942103595e-14 0 1.1239387503090344e-05 -0.00049413288423253202 0 0.00010773850672546884 -0.00043942132582356795 0 0.00017684759749615558 -0.0009381397123493639 0 0.00017684759749615558 -0.0009381397123493639 0 0.00050923713373433963 -0.0012801205031769108 0 -0.00015477979588707181 -0.001917409242290417 0 0.00017684759749615558 -0.0009381397123493639 0 0.00050923713373433963 -0.0012801205031769108 0 0.00037259180884321216 -0.00092321765628353386 0 0.00010773850672546884 -0.00043942132582356795 0 0.00017684759749615558 -0.0009381397123493639 0 0.00037259180884321216 -0.00092321765628353386 0 0.00050923713373433963 -0.0012801205031769108 0 0.00037259180884321216 -0.00092321765628353386 0 0.00081175687950292964 -0.0014599866337002964 0 0.00081175687950292964 -0.0014599866337002964 0 0.0008316250837195736 -0.0015091599696916481 0 0.001520758918989008 -0.0020906416418532033 0 0.00037259180884321216 -0.00092321765628353386 0 0.00081175687950292964 -0.0014599866337002964 0 0.0008316250837195736 -0.0015091599696916481 0 0.00037259180884321216 -0.00092321765628353386 0 0.0008316250837195736 -0.0015091599696916481 0 0.00043670844054828292 -0.00097711994436957563 0 0.00037259180884321216 -0.00092321765628353386 0 0.00043670844054828292 -0.00097711994436957563 0 0.00016360703524649693 -0.00049184419789879128 0 0.00043670844054828292 -0.00097711994436957563 0 0.00016360703524649693 -0.00049184419789879128 0 0.00022588037825101517 -0.00059104578602859909 0 0.00016360703524649693 -0.00049184419789879128 0 2.4305969563431784e-14 -1.3394450479320419e-14 0 0.00022588037825101517 -0.00059104578602859909 0 0.00016360703524649693 -0.00049184419789879128 0 2.4305969563431784e-14 -1.3394450479320419e-14 0 -2.0347113750818213e-14 -1.0950441942103595e-14 0 0.00010773850672546884 -0.00043942132582356795 0 0.00016360703524649693 -0.00049184419789879128 0 -2.0347113750818213e-14 -1.0950441942103595e-14 0 0.00010773850672546884 -0.00043942132582356795 0 0.00037259180884321216 -0.00092321765628353386 0 0.00016360703524649693 -0.00049184419789879128 0 -0.00044991701266404146 -0.0066837939815226101 0 -0.00068565014843368754 -0.0052842931341775317 0 6.8727572078179297e-06 -0.0058243416062367355 0 0.0036197546820717374 -0.0026141222869833394 0 0.002428961085978302 -0.0024558088185070003 0 0.0025982912862096801 -0.0020003516993797794 0 0.0011323670308643224 -0.0046725464213702257 0 0.001075969237342178 -0.0036428991146117895 0 -0.00044991701266404146 -0.0066837939815226101 0 6.8727572078179297e-06 -0.0058243416062367355 0 0.00042408610007737581 -0.0067712314886484619 0 0.0036197546820717374 -0.0026141222869833394 0 0.0044726172969950014 -0.0032887176851365122 0 0.0032198248254490468 -0.003127656746696223 0 -0.00044991701266404146 -0.0066837939815226101 0 0.00042408610007737581 -0.0067712314886484619 0 -0.00023892361348878087 -0.008000258595752624 0 0.0011323670308643224 -0.0046725464213702257 0 0.0039382159545940827 -0.0054640423397609083 0 0.0036197546820717374 -0.0026141222869833394 0 0.002428961085978302 -0.0024558088185070003 0 0.0032198248254490468 -0.003127656746696223 0 0.002428961085978302 -0.0024558088185070003 0 0.001520758918989008 -0.0020906416418532033 0 0.0022994219044974989 -0.0028270799050391475 0 0.002428961085978302 -0.0024558088185070003 0 0.001520758918989008 -0.0020906416418532033 0 0.0014503749378054335 -0.0017890867529152055 0 0.00050923713373433963 -0.0012801205031769108 0 0.00081175687950292964 -0.0014599866337002964 0 0.0014503749378054335 -0.0017890867529152055 0 0.00081175687950292964 -0.0014599866337002964 0 0.001520758918989008 -0.0020906416418532033 0 0.0014503749378054335 -0.0017890867529152055 0 0.002428961085978302 -0.0024558088185070003 0 0.0014503749378054335 -0.0017890867529152055 0 0.0025982912862096801 -0.0020003516993797794 0 -0.00068565014843368754 -0.0052842931341775317 0 -0.00077144848002444369 -0.0037404167159033608 0 -3.1011688262056782e-05 -0.004632785461887297 0 0.0014503749378054335 -0.0017890867529152055 0 0.0025982912862096801 -0.0020003516993797794 0 0.00131278176339144 -0.0016561864725096378 0 0.001075969237342178 -0.0036428991146117895 0 0.00024956356185097477 -0.0026959511476195271 0 0.00050923713373433963 -0.0012801205031769108 0 0.0014503749378054335 -0.0017890867529152055 0 0.00131278176339144 -0.0016561864725096378 0 0.00050923713373433963 -0.0012801205031769108 0 0.00131278176339144 -0.0016561864725096378 0 -0.00015477979588707181 -0.001917409242290417 0 -0.00077144848002444369 -0.0037404167159033608 0 -0.00015477979588707181 -0.001917409242290417 0 -0.00053979411889496778 -0.0031781747235881449 0 0.00024956356185097477 -0.0026959511476195271 0 -0.00013460597031825271 -0.0019337061968495882 0 -0.00077144848002444369 -0.0037404167159033608 0 -3.1011688262056782e-05 -0.004632785461887297 0 -0.00053979411889496778 -0.0031781747235881449 0 -0.00068565014843368754 -0.0052842931341775317 0 -3.1011688262056782e-05 -0.004632785461887297 0 6.8727572078179297e-06 -0.0058243416062367355 0 6.8727572078179297e-06 -0.0058243416062367355 0 0.00090951300227948371 -0.0057047624641497728 0 0.00042408610007737581 -0.0067712314886484619 0 -3.1011688262056782e-05 -0.004632785461887297 0 6.8727572078179297e-06 -0.0058243416062367355 0 0.00090951300227948371 -0.0057047624641497728 0 -3.1011688262056782e-05 -0.004632785461887297 0 0.00090951300227948371 -0.0057047624641497728 0 0.0013693613898142763 -0.0047380597383929919 0 0.00024367632946299417 -0.003600491545720101 0 0.0014654422376845688 -0.0039673837121093607 0 0.0013693613898142763 -0.0047380597383929919 0 -3.1011688262056782e-05 -0.004632785461887297 0 0.00024367632946299417 -0.003600491545720101 0 0.0013693613898142763 -0.0047380597383929919 0 -3.1011688262056782e-05 -0.004632785461887297 0 0.00024367632946299417 -0.003600491545720101 0 -0.00053979411889496778 -0.0031781747235881449 0 0.00024367632946299417 -0.003600491545720101 0 -0.00053979411889496778 -0.0031781747235881449 0 -0.00033945495074761431 -0.0028055300543182206 0 0.00024367632946299417 -0.003600491545720101 0 -0.00033945495074761431 -0.0028055300543182206 0 0.0002619090467275584 -0.0028064713374417287 0 0.00024367632946299417 -0.003600491545720101 0 0.0002619090467275584 -0.0028064713374417287 0 0.0014654422376845688 -0.0039673837121093607 0 -0.00015477979588707181 -0.001917409242290417 0 -0.00053979411889496778 -0.0031781747235881449 0 -0.0005789448856435629 -0.0023531781077720708 0 -0.00045661283019188899 -0.0016727018394348994 0 -0.00015477979588707181 -0.001917409242290417 0 -0.0005789448856435629 -0.0023531781077720708 0 -0.00033945495074761431 -0.0028055300543182206 0 -0.0005789448856435629 -0.0023531781077720708 0 -0.0005519852855294362 -0.0021859104640837733 0 -0.00053979411889496778 -0.0031781747235881449 0 -0.00033945495074761431 -0.0028055300543182206 0 -0.0005789448856435629 -0.0023531781077720708 0 -0.00045661283019188899 -0.0016727018394348994 0 -0.0005789448856435629 -0.0023531781077720708 0 -0.00070485399163987337 -0.0016821799629639245 0 -0.0005789448856435629 -0.0023531781077720708 0 -0.00070485399163987337 -0.0016821799629639245 0 -0.0005519852855294362 -0.0021859104640837733 0 -0.0005519852855294362 -0.0021859104640837733 0 -0.00077805269348853829 -0.0016414076790412511 0 -0.00024652152736834537 -0.0018076931186558345 0 -0.00070485399163987337 -0.0016821799629639245 0 -0.0005519852855294362 -0.0021859104640837733 0 -0.00077805269348853829 -0.0016414076790412511 0 -0.00077833711386137252 -0.0013140571801288521 0 -0.00070485399163987337 -0.0016821799629639245 0 -0.00077805269348853829 -0.0016414076790412511 0 -0.00033945495074761431 -0.0028055300543182206 0 -0.0005519852855294362 -0.0021859104640837733 0 0.0002619090467275584 -0.0028064713374417287 0 -0.0005519852855294362 -0.0021859104640837733 0 0.0002619090467275584 -0.0028064713374417287 0 -0.00024652152736834537 -0.0018076931186558345 0 0.0002619090467275584 -0.0028064713374417287 0 0.00086864944316097383 -0.0020729294544352128 0 0.0017575619126956787 -0.0033021287472897749 0 0.0002619090467275584 -0.0028064713374417287 0 -0.00024652152736834537 -0.0018076931186558345 0 0.00086864944316097383 -0.0020729294544352128 0 0.00086864944316097383 -0.0020729294544352128 0 0.0017575619126956787 -0.0033021287472897749 0 0.0023868659693679368 -0.0025509909853171221 0 0.0002619090467275584 -0.0028064713374417287 0 0.0017575619126956787 -0.0033021287472897749 0 0.0014654422376845688 -0.0039673837121093607 0 0.0017575619126956787 -0.0033021287472897749 0 0.0035641775148490765 -0.0042761487278252241 0 0.0027489624743901537 -0.0044537405442249857 0 0.0017575619126956787 -0.0033021287472897749 0 0.0023868659693679368 -0.0025509909853171221 0 0.0035641775148490765 -0.0042761487278252241 0 0.0023868659693679368 -0.0025509909853171221 0 0.004000633177467911 -0.0032692598600465653 0 0.0035641775148490765 -0.0042761487278252241 0 0.004000633177467911 -0.0032692598600465653 0 0.0049468791021478054 -0.004660700609302083 0 0.0035641775148490765 -0.0042761487278252241 0 0.004000633177467911 -0.0032692598600465653 0 0.0049468791021478054 -0.004660700609302083 0 0.0055892711872319954 -0.0040774150586009384 0 0.0049468791021478054 -0.004660700609302083 0 0.0035641775148490765 -0.0042761487278252241 0 0.0051919293853175189 -0.0059383833654401037 0 0.0035641775148490765 -0.0042761487278252241 0 0.0039891670367753788 -0.0055655256715884628 0 0.0027489624743901537 -0.0044537405442249857 0 0.0035641775148490765 -0.0042761487278252241 0 0.0051919293853175189 -0.0059383833654401037 0 0.0039891670367753788 -0.0055655256715884628 0 0.0051919293853175189 -0.0059383833654401037 0 0.0054534542672109599 -0.0070097950155558128 0 0.0039891670367753788 -0.0055655256715884628 0 0.0054534542672109599 -0.0070097950155558128 0 0.0039891670367753788 -0.0055655256715884628 0 0.0042858670529795518 -0.0066050199456437015 0 0.0039891670367753788 -0.0055655256715884628 0 0.0028123954773755576 -0.0051994591396042336 0 0.0042858670529795518 -0.0066050199456437015 0 0.0028123954773755576 -0.0051994591396042336 0 0.0014654422376845688 -0.0039673837121093607 0 0.0013693613898142763 -0.0047380597383929919 0 0.0017575619126956787 -0.0033021287472897749 0 0.0014654422376845688 -0.0039673837121093607 0 0.0027489624743901537 -0.0044537405442249857 0 0.0039891670367753788 -0.0055655256715884628 0 0.0028123954773755576 -0.0051994591396042336 0 0.0027489624743901537 -0.0044537405442249857 0 0.0028123954773755576 -0.0051994591396042336 0 0.0014654422376845688 -0.0039673837121093607 0 0.0027489624743901537 -0.0044537405442249857 0 0.0091502271145846182 -0.0074186388424190156 0 0.0078367260833145241 -0.0063346627594709536 0 0.0078445381679992654 -0.0074006568940426848 0 0.0089048404108715493 -0.005807620571921971 0 0.0071815309414128264 -0.0049230379350951184 0 0.0078367260833145241 -0.0063346627594709536 0 0.0091502271145846182 -0.0074186388424190156 0 0.0089048404108715493 -0.005807620571921971 0 0.0078367260833145241 -0.0063346627594709536 0 0.0071815309414128264 -0.0049230379350951184 0 0.0078367260833145241 -0.0063346627594709536 0 0.0064931948059549771 -0.0058106498794124641 0 0.0078367260833145241 -0.0063346627594709536 0 0.0064931948059549771 -0.0058106498794124641 0 0.0078445381679992654 -0.0074006568940426848 0 0.0071815309414128264 -0.0049230379350951184 0 0.0064931948059549771 -0.0058106498794124641 0 0.0055892711872319954 -0.0040774150586009384 0 0.0049468791021478054 -0.004660700609302083 0 0.0064931948059549771 -0.0058106498794124641 0 0.0055892711872319954 -0.0040774150586009384 0 0.0049468791021478054 -0.004660700609302083 0 0.0051919293853175189 -0.0059383833654401037 0 0.0064931948059549771 -0.0058106498794124641 0 0.0051919293853175189 -0.0059383833654401037 0 0.0064931948059549771 -0.0058106498794124641 0 0.0066609326162931706 -0.0072873009966072768 0 0.0054534542672109599 -0.0070097950155558128 0 0.0066609326162931706 -0.0072873009966072768 0 0.0068434318407766277 -0.0084698798897203352 0 0.0051919293853175189 -0.0059383833654401037 0 0.0054534542672109599 -0.0070097950155558128 0 0.0066609326162931706 -0.0072873009966072768 0 0.0066609326162931706 -0.0072873009966072768 0 0.0080301678534354156 -0.008771860707350098 0 0.0068434318407766277 -0.0084698798897203352 0 0.0064931948059549771 -0.0058106498794124641 0 0.0066609326162931706 -0.0072873009966072768 0 0.0078445381679992654 -0.0074006568940426848 0 0.0066609326162931706 -0.0072873009966072768 0 0.0078445381679992654 -0.0074006568940426848 0 0.0080301678534354156 -0.008771860707350098 0 0.0078445381679992654 -0.0074006568940426848 0 0.0093106152656956143 -0.0088785164930471391 0 0.0080301678534354156 -0.008771860707350098 0 0.0091502271145846182 -0.0074186388424190156 0 0.0078445381679992654 -0.0074006568940426848 0 0.0093106152656956143 -0.0088785164930471391 0 0.0094137131757455368 -0.010213978340186969 0 0.0081796579357002429 -0.010099045139501491 0 0.0094562473198774068 -0.011377090058157622 0 0.0093106152656956143 -0.0088785164930471391 0 0.0094137131757455368 -0.010213978340186969 0 0.0080301678534354156 -0.008771860707350098 0 0.0094137131757455368 -0.010213978340186969 0 0.0080301678534354156 -0.008771860707350098 0 0.0081796579357002429 -0.010099045139501491 0 0.0080301678534354156 -0.008771860707350098 0 0.0081796579357002429 -0.010099045139501491 0 0.0068434318407766277 -0.0084698798897203352 0 0.0081796579357002429 -0.010099045139501491 0 0.0068434318407766277 -0.0084698798897203352 0 0.0068308526539616601 -0.0093067018219994482 0 0.0054534542672109599 -0.0070097950155558128 0 0.0068434318407766277 -0.0084698798897203352 0 0.0056322420588425315 -0.0079716997937811455 0 0.0068434318407766277 -0.0084698798897203352 0 0.0068308526539616601 -0.0093067018219994482 0 0.0056322420588425315 -0.0079716997937811455 0 0.0068308526539616601 -0.0093067018219994482 0 0.0070155415528481719 -0.010007604169282921 0 0.0078914628920819328 -0.010634112204477495 0 0.0068308526539616601 -0.0093067018219994482 0 0.0070155415528481719 -0.010007604169282921 0 0.0058115459952665744 -0.008772624075525242 0 0.0070155415528481719 -0.010007604169282921 0 0.0078914628920819328 -0.010634112204477495 0 0.0078438261059197573 -0.010959094593966712 0 0.0081796579357002429 -0.010099045139501491 0 0.0068308526539616601 -0.0093067018219994482 0 0.0078914628920819328 -0.010634112204477495 0 0.0081796579357002429 -0.010099045139501491 0 0.0078914628920819328 -0.010634112204477495 0 0.0087297410799754525 -0.011353626490064892 0 0.0078914628920819328 -0.010634112204477495 0 0.0087297410799754525 -0.011353626490064892 0 0.0086238486231762831 -0.011841023762293188 0 0.0087297410799754525 -0.011353626490064892 0 0.0093412997998691457 -0.012309894534677021 0 0.0086238486231762831 -0.011841023762293188 0 0.0087297410799754525 -0.011353626490064892 0 0.0094562473198774068 -0.011377090058157622 0 0.0093412997998691457 -0.012309894534677021 0 0.0081796579357002429 -0.010099045139501491 0 0.0087297410799754525 -0.011353626490064892 0 0.0094562473198774068 -0.011377090058157622 0 0.0031314859699313304 -0.0061993994669779923 0 0.0045298778831595913 -0.0074910952447512112 0 0.0034993337685324897 -0.0070583787373421662 0 0.0016795990079312741 -0.0055125352821876828 0 0.0008946353108902007 -0.0074413874721243525 0 0.0021227294431206039 -0.0057047624640936163 0 0.0031314859699313304 -0.0061993994669779923 0 0.0034993337685324897 -0.0070583787373421662 0 0.0028123954773755576 -0.0051994591396042336 0 0.0013693613898142763 -0.0047380597383929919 0 0.0031314859699313304 -0.0061993994669779923 0 0.0021227294431206039 -0.0057047624640936163 0 0.0013693613898142763 -0.0047380597383929919 0 0.0031314859699313304 -0.0061993994669779923 0 0.0016795990079312741 -0.0055125352821876828 0 0.0013005141708353689 -0.0048237060813357338 0 0.0031314859699313304 -0.0061993994669779923 0 0.0042858670529795518 -0.0066050199456437015 0 0.0045298778831595913 -0.0074910952447512112 0 0.0028123954773755576 -0.0051994591396042336 0 0.0031314859699313304 -0.0061993994669779923 0 0.0042858670529795518 -0.0066050199456437015 0 0.0054534542672109599 -0.0070097950155558128 0 0.0042858670529795518 -0.0066050199456437015 0 0.0056322420588425315 -0.0079716997937811455 0 0.0056322420588425315 -0.0079716997937811455 0 0.0045298778831595913 -0.0074910952447512112 0 0.0058115459952665744 -0.008772624075525242 0 0.0042858670529795518 -0.0066050199456437015 0 0.0056322420588425315 -0.0079716997937811455 0 0.0045298778831595913 -0.0074910952447512112 0 0.0045298778831595913 -0.0074910952447512112 0 0.0047847964875914516 -0.0082427719571820691 0 0.0058115459952665744 -0.008772624075525242 0 0.0068308526539616601 -0.0093067018219994482 0 0.0056322420588425315 -0.0079716997937811455 0 0.0058115459952665744 -0.008772624075525242 0 0.0070155415528481719 -0.010007604169282921 0 0.0058115459952665744 -0.008772624075525242 0 0.0061002730935849668 -0.0094601071488516486 0 0.0047847964875914516 -0.0082427719571820691 0 0.0061002730935849668 -0.0094601071488516486 0 0.0050519183153361676 -0.0089986113920509907 0 0.0047847964875914516 -0.0082427719571820691